ITEM: TIMESTEP
20000
ITEM: NUMBER OF ATOMS
1900
ITEM: BOX BOUNDS pp pp pp
0.0000000000000000e+00 8.0000000000000000e+02
0.0000000000000000e+00 8.0000000000000000e+02
0.0000000000000000e+00 8.0000000000000000e+02
ITEM: ATOMS id type x y z
538 3 6.56206 1.27982 7.02229
509 3 183.655 3.99756 3.92713
1699 1 299.361 2.74623 10.9668
1455 2 577.908 8.74406 1.86445
1340 1 767.194 34.7987 23.6537
1467 2 39.2522 74.0775 25.0949
420 3 484.488 64.8707 22.1959
1508 1 27.3063 85.6002 25.7586
1390 2 133.291 92.9922 11.3838
267 3 324.397 103.321 4.62605
1571 2 336.332 102.818 5.44359
969 1 730.368 89.8849 21.68
1704 2 298.974 183.717 11.8883
1224 1 87.5346 228.459 25.0563
1317 2 321.989 219.927 25.8378
1112 2 406.965 228.6 10.9662
1543 1 432.005 218.876 11.439
329 3 425.552 247.56 13.6077
801 3 537.224 260.818 18.6826
1848 1 704.105 245.985 14.0621
1708 2 134.642 270.054 8.78862
1059 2 259.654 268.758 18.2138
316 3 625.843 271.897 2.38147
1644 2 746.561 290.254 14.5673
1191 1 764.055 287.93 15.5421
284 3 732.259 295.697 8.09342
1738 2 142.94 327.891 16.2366
1662 1 553.826 325.307 9.05659
1181 1 104.127 370.992 9.93584
297 3 124.025 350.677 15.7431
1791 2 392.866 372.618 23.4333
1577 2 736.237 359.736 9.28375
225 3 759.519 360.715 22.2241
90 10 18.331 392.245 5.62898
874 3 321.825 399.796 8.13444
1004 2 120.491 13.0796 36.094
1538 1 509.513 33.1278 52.1546
832 3 762.58 51.8214 50.6718
825 3 105.044 60.6919 50.3927
1545 1 352.945 88.3601 42.3502
450 3 641.887 82.0811 29.8845
978 1 558.284 131.918 51.8754
1812 2 755.327 127.166 50.2166
398 3 785.409 123.107 42.6199
605 3 177.421 149.951 35.8757
1581 2 179.028 158.085 45.367
414 3 401.109 153.528 42.2934
338 3 461.984 137.066 37.3246
202 3 716.999 160.287 30.7322
1519 2 767.31 166.435 38.0247
1696 2 230.813 204.781 42.7708
657 3 724.709 195.819 40.6964
1766 1 364.15 236.24 37.009
254 3 311.586 289.862 37.7508
964 2 418.553 306.027 33.6681
763 3 764.418 299.832 48.5306
853 3 222.215 335.055 50.2847
1783 1 422.297 364.251 32.3852
1329 2 582.415 366.82 28.3517
1139 1 129.427 393.376 43.5116
302 3 233.793 391.615 50.1799
1144 2 634.908 21.493 60.3719
900 3 346.596 42.647 55.1703
1837 2 365.763 41.9777 77.9274
864 3 160.088 66.6901 66.1742
1219 1 177.085 74.7656 70.7151
1150 2 453.849 56.2471 63.0467
1765 2 280.767 84.3716 63.5585
292 3 617.089 82.6299 53.3618
40 10 0.918045 119.858 79.243
1605 2 9.15692 122.012 77.3445
378 3 496.48 112.685 65.0681
335 3 41.3479 137.961 61.0423
831 3 270.364 140.167 73.1784
1680 2 60.5726 172.139 61.16
53 5 399.443 194.69 58.7253
54 10 390.344 198.433 60.5122
272 3 698.466 205.72 54.4362
1629 2 7.1741 227.487 72.0793
1205 2 592.199 225.413 79.1345
632 3 666.491 222.024 63.7408
471 3 775.735 218.815 69.814
1504 1 345.072 252.989 72.0026
886 3 471.658 252.302 77.4713
1779 2 9.83333 272.998 60.3418
744 3 286.281 273.568 70.8007
1255 2 222.768 323.686 65.2604
1194 1 205.784 362.03 64.249
561 3 21.2711 1.85003 88.2648
164 10 73.6598 19.8744 98.3215
163 5 81.0427 25.952 95.3964
1369 1 466.72 9.48134 97.639
655 3 568.572 49.0522 85.8623
793 3 167.373 56.9621 105.928
689 3 306.625 70.1734 101.588
1858 1 168.725 82.4228 94.3027
1250 2 170.753 89.3129 94.4686
1297 1 234.402 98.461 94.4345
1716 1 220.703 102.529 94.7507
1242 2 268.067 86.5982 84.8474
1554 2 421.526 81.145 104.377
1118 2 528.547 86.6758 100.821
1787 1 741.372 86.9681 105.605
1402 1 603.81 116.199 95.8533
39 5 796.152 128.041 82.4577
496 3 218.738 142.312 100.501
1035 2 280.104 142.22 97.2683
1135 2 71.2179 202.603 95.7211
1807 1 485.338 194.424 90.0616
829 3 659.748 206.455 85.893
555 3 796.354 205.765 94.6908
1282 2 24.9658 223.939 89.0921
1374 1 144.444 223.44 99.8751
1551 2 245.221 235.926 84.7436
557 3 272.696 228.332 94.6439
1582 1 6.0925 259.904 104.497
1756 2 495.002 258.436 94.835
224 3 23.7948 291.166 91.2935
1001 2 56.749 283.786 85.5577
1705 1 194.252 315.441 100.45
967 2 216.198 333.265 97.1674
925 1 559.272 371.782 95.7965
892 3 653.311 366.577 93.7559
1436 2 345.326 379.524 90.1855
1298 1 492.127 379.004 103.436
1189 1 555.238 3.63366 110.247
1547 1 577.298 16.85 109.756
122 10 287.254 39.8262 123.161
1617 2 308.879 29.0176 106.878
121 5 295.579 45.2396 124.338
1698 2 372.491 31.0413 131.275
1295 2 671.204 34.4468 124.461
849 3 197.754 65.6825 119.242
1129 2 323.082 61.437 118.004
814 3 353.04 61.9342 131.621
999 2 430.441 59.2504 113.891
431 3 303.247 88.9172 128.751
795 3 438.06 80.3497 118.47
1186 1 481.592 106.396 128.919
1010 2 755.409 93.2812 116.574
1810 2 213.993 122.218 116.57
522 3 82.3838 158.33 125.351
1822 2 414.379 161.328 121.84
947 2 422.531 183.871 109.558
451 3 150.394 231.485 125.193
1012 2 356.184 239.631 121.152
1742 1 513.855 231.776 111.401
643 3 751.927 216.253 115.926
958 2 228.35 242.252 122.183
1164 2 564.936 243.397 112.564
993 1 610.322 259.338 116.825
932 2 615.137 248.236 117.526
299 3 688.626 247.464 126.136
943 1 778.759 275.121 123.75
1770 1 233.705 294.165 113.413
955 2 354.338 302.609 129.847
1560 2 520.621 326.747 121.263
1325 2 704.76 331.252 110.182
159 5 363.09 367.273 111.691
160 10 370.385 361.778 115.762
671 3 553.594 355.461 126.734
1114 1 617.219 349.393 119.409
504 3 183.809 397.478 109.441
2 10 121.876 13.4335 158.003
564 3 312.856 5.59107 134.126
1893 2 314.016 25.7172 138.491
1469 1 117.637 36.2426 134.207
1439 1 157.439 36.9156 138.368
1632 2 316.983 33.6859 145.783
956 2 705.466 52.7248 157.938
1371 2 375.469 56.3298 138.914
1414 2 693.165 53.427 142.273
1103 1 738.552 60.9649 136.69
1777 2 321.657 101.144 157.208
719 3 553.804 94.5332 136.311
950 2 676.506 118.929 145.355
1603 1 89.7526 166.24 135.18
1754 1 680.562 173.362 148.792
321 3 345.408 204.043 137.456
1264 2 642.289 197.267 157.553
1845 1 276.947 228.891 136.729
483 3 283.395 219.487 152.092
842 3 89.4529 262.354 157.466
1283 1 344.567 257.845 156.184
461 3 416.759 315.014 147.804
600 3 304.481 322.386 146.499
1 5 117.572 16.7677 166.392
354 3 525.617 18.2285 175.675
1583 2 571.844 20.0831 178.271
639 3 84.8575 61.1229 170.68
1223 1 164.234 56.8668 170.596
609 3 364.342 117.648 177.897
1158 1 557.539 115.111 183.888
1442 1 617.619 117.162 183.533
355 3 559.891 159.542 180.316
1518 2 779.52 137.355 167.76
1653 2 282.533 169.502 181.433
1895 2 774.123 175.458 174.994
23 5 789.191 185.57 178.289
867 3 340.184 209.27 181.738
24 10 796.583 192.165 179.653
1036 2 302.458 214.26 184.475
1792 2 517.943 227.367 178.799
965 2 262.068 252.011 179.05
572 3 602.772 242.825 175.995
665 3 623.174 308.295 186.501
624 3 763.132 302.293 171.918
213 3 61.4894 320.295 180.624
974 2 77.1833 344.568 177.689
182 10 346.306 397.003 167.59
1014 1 440.224 28.4444 198.339
1202 1 447.985 41.7378 207.928
941 2 273.972 53.5024 197.801
484 3 660.44 53.8216 205.952
1574 2 288.397 99.7123 196.308
1286 2 576.99 95.7229 204.659
547 3 47.5384 117.104 199.777
1585 2 428.453 150.829 193.211
258 3 545.21 141.077 207.966
1127 1 204.282 164.934 190.317
1415 2 610.079 205.809 207.29
426 3 695.982 205.141 202.821
391 3 305.585 223.629 200.3
1055 2 794.974 231.317 213.16
603 3 509.002 255.101 190.698
1090 1 662.911 256.534 189.307
1192 1 315.354 267.622 199.887
1628 2 405.643 271.843 205.683
1411 2 650.534 287.49 208.345
1485 2 757.292 292.046 197.415
1275 1 492.356 312.293 203.5
1552 1 593.997 315.181 186.886
1899 1 587.472 307.11 192.542
1021 1 784.761 309.073 196.284
893 3 89.8805 339.4 193.854
401 3 289.292 338.326 195.511
1137 2 560.607 332.696 191.508
1187 2 692.548 334.663 202.058
1448 1 597.526 348.663 212.183
649 3 126.992 398.218 201.422
706 3 257.994 378.444 202.527
664 3 795.687 385.822 188.543
703 3 373.78 3.90244 229.872
1272 2 456.995 20.8974 231.961
1580 2 611.999 0.555649 232.851
206 3 156.981 49.3318 221.636
1778 2 694.126 31.3797 233.925
427 3 258.204 68.0444 236.361
362 3 640.33 60.826 227.222
1292 2 172.999 97.249 224.585
1635 2 214.677 80.0497 227.848
235 3 661.853 100.297 238.59
1587 1 218.864 124.143 226.377
1354 1 704.174 108.474 223.572
1413 2 510.886 154.125 237.238
1384 1 42.6123 181.784 213.748
732 3 466.528 173.041 225.215
641 3 20.6795 210.159 223.236
601 3 193.187 198.204 223.273
1675 1 763.957 217.44 225.166
1154 1 784.121 221.803 229.728
916 1 653.311 264.802 228.178
1244 1 175.86 303.644 233.691
1598 1 92.4964 332.88 238.064
273 3 153.381 340.274 216.82
369 3 349.299 328.302 227.829
386 3 84.2807 389.973 236.084
533 3 191.119 391.92 218.978
1328 2 488.076 393.27 217.333
288 3 505.823 384.401 224.243
783 3 155.977 25.4883 250.716
1006 2 20.8405 32.2868 254.994
1131 2 651.882 47.1397 262.687
346 3 757.9 31.4308 242.735
1811 2 318.117 71.225 253.224
32 10 474.752 77.2045 256.663
513 3 649.481 78.7832 248.427
544 3 170.193 95.6934 242.348
31 5 476.065 86.0871 261.065
1651 2 231.839 147.532 251.871
1449 2 271.195 156.062 264.669
1804 1 337.657 152.618 247.2
1549 1 628.44 146.796 240.483
636 3 256.485 188.779 255.532
775 3 687.891 191.294 255.742
1544 2 100.649 233.608 240.723
498 3 271.497 216.398 245.917
1165 2 416.202 232.813 262.021
280 3 191.882 263.266 264.253
1146 2 276.77 241.88 240.654
1657 1 271.228 250.13 264.501
350 3 374.021 255.432 243.392
912 1 652.923 248.572 265.006
1800 1 317.676 277.496 256.951
228 3 584.256 279.094 244.694
742 3 461.416 295.219 261.829
1502 2 258.513 343.137 242.951
635 3 251.184 358.625 252.653
913 2 675.681 358.428 255.461
1361 2 363.618 382.879 243.509
526 3 54.6853 3.68059 292.581
1210 2 357.716 14.157 273.73
883 3 567.608 20.2411 284.478
60 10 617.504 20.4203 284.523
59 5 616.027 10.597 283.374
983 1 163.88 37.2265 275.098
1874 2 486.28 37.3149 282.232
633 3 676.246 35.9806 277.212
1885 1 514.69 79.0286 278.803
1586 2 576.441 62.1929 292.513
1753 1 426.581 98.7119 267.068
1407 1 748.148 105.103 285.088
364 3 34.7189 130.789 274.332
1797 2 177.635 111.781 268.242
648 3 562.83 127.732 272.151
361 3 575.924 131.983 283.903
495 3 783.846 123.086 288.446
531 3 666.078 142.613 275.723
1609 2 720.013 134.377 267.199
464 3 43.668 174.361 285.649
62 10 375.03 175.227 269.918
61 5 376.648 165.953 273.292
1285 2 596.085 205.107 268.096
1622 2 29.043 213.51 269.665
478 3 542.886 217.93 288.608
1437 2 721.223 235.147 286.699
1225 2 130.554 251.758 290.055
1661 2 440.39 255.911 276.014
1153 1 187.196 268.262 279.52
1847 2 311.875 272.653 269.566
77 5 418.707 267.695 280.246
78 10 418.108 266.829 270.301
634 3 322.637 343.681 277.231
1817 1 453.92 356.325 267.243
682 3 18.9368 390.171 280.949
933 2 224.654 380.791 276.019
567 3 645.494 393.57 273.556
669 3 169.79 10.4636 293.521
96 10 482.447 16.963 293.374
95 5 483.052 10.3254 300.829
1289 2 507.963 23.9174 312.051
1263 2 799.037 19.9015 304.018
1121 2 219.723 42.9405 309.44
244 3 263.496 39.9267 298.705
1115 1 142.682 74.9095 298.598
1509 2 680.622 99.0653 295.64
1207 2 792.961 83.3303 314.737
693 3 452.733 128.481 297.031
670 3 317.362 133.879 301.674
1576 1 504.353 148.519 299.585
1138 1 35.5045 177.996 315.58
106 10 428.968 180.965 303.574
131 5 327.002 199.417 303.112
132 10 327.851 200.453 313.022
959 2 354.004 207.706 316.415
105 5 428.143 190.91 304.217
1075 2 544.818 195.003 300.785
1805 1 544.157 201.678 305.871
823 3 107.898 228.025 297.437
372 3 230.143 236.337 311.603
30 10 500.778 241.236 310.666
29 5 493.282 245.296 305.44
1305 1 557.009 257.908 299.48
1894 1 588.11 250.1 295.437
1366 2 775.961 258.316 297.261
713 3 100.993 296.962 312.722
1327 2 307.266 333.962 295.661
1602 2 419.412 341.711 301.652
1260 2 313.332 365.178 306.178
852 3 385.147 361.58 305.02
1222 1 305.196 377.096 314.296
1143 2 356.679 377.196 318.973
441 3 237.11 15.2123 335.949
1732 2 427.066 12.0301 325.48
707 3 568.512 9.70292 343.891
1332 2 754.097 21.565 337.385
318 3 666.575 46.5579 327.11
512 3 163.117 63.2384 345.672
1514 2 413.36 58.1464 328.692
687 3 64.9059 87.7717 337.778
156 10 716.281 117.44 327.214
155 5 723.205 116.568 320.051
1607 1 273.672 140.7 334.358
300 3 382.959 143.96 341.278
1100 1 470.059 146.971 331.765
1125 1 715.84 139.711 336.869
868 3 157.839 202.346 328.068
1781 2 439.958 197.604 331.073
1404 1 166.204 238.689 332.482
351 3 24.4331 245.098 343.449
1013 2 36.8521 251.229 323.595
1838 1 140.923 255.476 341.825
1646 1 233.792 270.626 333.845
469 3 558.837 275.076 338.886
869 3 135.652 321.036 343.226
50 10 312.918 331.116 323.906
49 5 310.922 326.067 332.304
559 3 513.77 320.123 337.394
914 1 715.446 321.958 337.988
1642 1 160.985 373.235 336.465
295 3 73.4311 397.755 329.965
1706 1 239.022 399.557 320.256
976 1 304.996 388.277 332.926
381 3 492.322 24.8458 348.703
562 3 306.789 42.351 367.623
1736 1 373.966 54.5657 367.466
728 3 518.285 58.8287 351.437
1349 1 512.878 83.1826 357.454
437 3 307.743 145.554 354.541
506 3 448.969 155.558 359.646
1496 1 735.242 157.705 370.085
810 3 98.7431 162.337 356.537
1147 2 503.693 175.466 369.266
730 3 276.292 210.2 347.567
301 3 769.98 207.429 352.313
1463 1 649.95 213.988 366.607
1863 1 658.919 218.734 359.255
229 3 751.262 233.344 351.932
1872 2 147.009 246.895 364.644
1071 1 243.752 242.678 371.821
1339 2 74.6865 299.989 351.995
344 3 608.537 301.046 365.654
1674 2 242.906 354.199 354.061
1855 2 536.319 362.236 353.438
1344 2 794.919 352.278 360.406
591 3 105.366 383.931 350.75
894 3 489.234 374.013 351.545
511 3 641.395 382.532 348.641
1079 2 796.087 383.562 372.575
1195 1 539.758 23.5818 385.594
743 3 618.641 4.20874 384.399
751 3 142.523 42.0521 376.736
1588 1 168.956 39.491 385.35
1274 1 103.351 77.1312 398.821
540 3 592.857 79.8832 378.076
1500 1 770.627 61.4308 388.042
1136 2 558.028 95.9889 376.556
710 3 662.872 81.2748 391.341
863 3 55.4836 108.886 388.804
1385 1 369.092 131.15 381.154
805 3 489.755 106.931 376.593
757 3 485.361 108.901 397.094
1497 2 748.923 130.492 378.48
500 3 327.658 134.867 378.221
780 3 747.49 152.232 397.68
851 3 290.663 215.663 375.767
312 3 237.38 253.495 384.999
838 3 740.833 258.595 377.867
1396 1 80.0735 284.611 395.711
178 10 264.387 292.7 383.959
177 5 267.551 288.632 392.529
1611 1 348.894 292.754 383.018
1427 2 184.937 303.102 374.997
1522 2 773.145 308.394 373.792
1794 1 240.744 322.276 395.569
642 3 414.388 332.899 378.941
608 3 633.194 333.627 382.854
1870 1 772.931 334.505 385.75
393 3 144.254 390.978 388.39
1294 2 586.088 387.449 386.785
945 2 757.229 394.753 375.572
137 5 287.901 1.15928 412.67
138 10 281.393 1.36352 420.259
278 3 654.373 8.76028 409.277
51 5 386.796 32.6431 423.49
52 10 381.998 41.3691 424.403
1303 2 519.25 58.1727 412.453
1477 2 346.31 89.4663 415.818
1120 2 364.739 99.5004 400.479
1689 1 86.4765 112.104 415.293
1572 2 401.51 124.771 425.878
1482 2 464.307 119.055 426.079
1311 2 746.546 121.361 409.602
525 3 72.0496 139.884 421.754
1755 2 160.021 135.501 408.526
1378 2 17.1499 176.049 409.451
296 3 196.244 162.787 400.723
1487 2 227.694 184.638 410.31
1360 1 42.7702 194.004 414.731
279 3 412.044 205.431 413.158
433 3 756.15 199.71 421.812
1169 2 394.017 265.068 421.74
1097 2 554.104 292.728 407.263
987 2 607.501 274.052 421.977
1725 1 67.6769 340.576 402.008
1208 2 2.27388 376.084 418.263
1232 2 25.1911 390.712 400.74
220 3 394.371 394.948 425.909
456 3 700.471 382.908 424.158
1237 2 375.168 9.25619 429.314
1182 1 110.623 27.0026 431.511
816 3 180.093 46.0979 451.883
1221 2 335.771 27.7172 438.348
839 3 495.188 38.8997 443.619
1024 1 242.586 74.187 435.982
896 3 615.11 74.5561 433.115
1213 1 78.8323 103.914 444.665
1709 2 411.232 90.0205 443.367
1648 2 492.845 81.7289 448.415
1530 2 511.138 117.001 432.003
152 10 729.654 167.414 445.394
151 5 721.699 161.387 446.026
911 1 238.449 203.862 434.449
774 3 43.0662 253.923 449.815
1686 2 154.273 265.256 446.718
246 3 540.732 242.417 452.626
1148 1 298.739 297.452 446.852
884 3 446.82 314.19 448.859
679 3 760.311 309.039 430.33
1701 1 664.394 335.038 438.874
377 3 58.4608 363.149 429.813
942 1 62.0711 363.873 445.235
1506 2 148.108 365.415 445.278
848 3 23.0425 382.074 429.395
1198 2 171.477 398.571 445.464
91 5 487.062 23.4472 472.102
1841 2 113.705 41.4584 476.594
92 10 491.879 32.171 471.272
876 3 78.3735 66.2765 478.255
458 3 711.465 107.48 455.607
998 1 75.068 157.517 456.791
878 3 689.861 156.935 471.196
1096 2 39.2445 181.251 479.665
1241 2 677.342 174.031 455.149
1011 2 698.02 181.907 467.638
824 3 314.729 194.218 470.442
1072 2 302.162 194.978 475.065
5 5 636.284 211.112 475.926
6 10 645.958 208.716 475.101
430 3 236.188 222.056 473.768
1723 2 44.2979 260.682 479.06
1336 1 273.79 261.936 469.093
975 2 533.32 241.762 478.091
1721 1 144.116 287.717 468.749
166 10 348.899 342.894 479.791
589 3 484.803 328.329 469.244
255 3 6.63528 350.501 456.227
939 1 149.988 363.97 474.748
357 3 504.9 350.838 467.891
1062 1 675.61 360.326 459.045
833 3 738.154 350.589 479.986
870 3 72.1025 378.557 455.82
249 3 60.6005 396.665 465.729
1578 2 363.362 398.291 468.495
194 10 424.594 386.849 466.25
193 5 427.729 384.015 457.187
946 1 464.182 392.446 469.575
1888 2 506.503 394.291 456.509
1867 2 687.941 382.577 474.076
1309 1 152.839 11.2157 502.324
653 3 763.055 6.86078 493.208
232 3 447.513 43.7276 493.195
929 1 758.314 48.7741 501.051
1616 2 256.091 68.3252 487.515
310 3 376.906 93.7584 501.301
1280 2 778.664 87.8635 482.107
112 10 33.1624 112.529 489.407
111 5 41.4794 111.3 483.992
845 3 612.566 123.403 482.078
1775 2 635.115 117.349 506.01
358 3 5.45213 144.11 480.164
1683 2 159.565 182.985 490.061
1836 2 451.337 165.925 499.895
1832 2 536.661 161.859 482.983
615 3 53.3693 206.843 482.569
1892 1 131.446 211.875 484.955
1435 2 324.823 212.955 495.565
729 3 598.142 192.39 497.928
247 3 625.443 209.913 496.383
568 3 310.173 318.797 493.841
1719 1 713.293 302.841 500.396
1201 2 732.441 308.964 484.717
165 5 345.515 333.618 481.375
1033 1 326.781 355.689 500.249
1849 1 534.115 372.056 505.077
367 3 788.674 367.315 487.178
1673 1 778.802 362.562 499.791
191 5 209.967 385.026 491.206
192 10 208.088 381.421 500.342
465 3 281.09 377.627 482.144
1540 2 448.773 396.787 490.26
114 10 610.989 18.712 521.777
113 5 607.955 10.3583 526.361
1573 2 605.53 24.9137 528.261
1752 2 695.736 15.0812 530.894
1533 2 718.439 36.001 519.999
331 3 773.428 40.2793 511.078
1084 2 56.9061 62.1274 520.117
404 3 386.958 79.7378 529.266
1864 2 492.526 67.2203 519.478
306 3 527.917 54.0191 517.805
1403 2 597.454 94.7593 510.165
617 3 659.178 80.9314 511.445
474 3 109.281 109.555 528.971
428 3 674.869 111.542 517.75
1063 1 415.909 143.835 514.95
263 3 637.313 143.605 527.465
1711 1 705.88 135.306 517.176
830 3 88.7145 181.562 512.387
1251 2 725.978 177.782 513.976
1373 2 553.881 189.009 508.489
1569 1 692.135 200.388 516.403
731 3 261.442 224.338 516.578
1561 2 45.1441 250.99 529.112
764 3 501.731 286.796 509.894
1495 1 544.18 290.349 513.44
422 3 281.386 295.424 515.341
1511 1 506.909 321.877 511.782
1256 1 761.503 329.854 518.391
1852 1 416.787 361.166 511.219
418 3 464.699 346.925 528.816
1875 2 750.061 355.975 511.801
1056 2 115.318 395.737 511.359
1731 2 203.247 382.306 514.233
1389 2 616.463 19.6177 538.828
1388 2 798.263 18.1222 542.32
1345 2 2.98998 67.1694 559.903
1215 1 292.232 55.1454 537.804
242 3 784.189 75.3134 541.766
1457 1 372.749 101.787 558.888
1330 1 687.641 83.7697 534.584
1873 2 8.59335 122.418 559.237
291 3 293.217 131.972 541.113
419 3 277.656 154.932 538.914
203 3 22.665 171.281 555.316
1656 2 173.825 169.297 549.207
1682 2 574.373 178.145 553.6
553 3 235.874 197.243 551.964
499 3 171.538 216.021 536.465
1301 2 440.026 216.121 548.715
18 10 613.756 232.898 554.319
715 3 384.752 247.462 534.961
290 3 675.06 258.969 533.336
70 10 21.4818 272.357 556.881
697 3 250.271 282.862 533.374
563 3 385.926 284.751 540.259
1034 1 529.178 290.217 548.031
1431 1 573.605 278.342 539.9
1707 2 684.064 282.408 540.341
1383 1 206.28 293.361 546.093
410 3 244.573 328.363 558.693
1614 1 290.073 321.682 535.076
15 5 539.157 393.71 550.896
16 10 545.324 389.387 557.474
1816 2 333.522 13.6775 578.633
724 3 560.714 19.4025 569.001
602 3 162.211 36.803 564.188
1456 1 461.472 34.9444 573.24
1243 2 211.64 59.4636 560.377
491 3 174.942 88.8194 577.841
926 2 352.946 91.189 562.047
597 3 95.5116 132.736 561.978
1037 1 458.605 119.753 560.701
586 3 684.97 112.478 563.787
717 3 683.815 110.603 585.474
1798 1 192.734 134.196 571.147
626 3 336.696 140.819 585.655
250 3 455.83 141.996 573.676
542 3 547.003 140.237 586.395
934 1 359.489 204.027 572.011
797 3 392.172 192.71 569.295
846 3 121.865 238.59 584.989
17 5 614.118 226.807 562.241
69 5 18.976 264.97 563.139
904 2 443.698 290.828 571.375
208 3 483.909 291.442 561.569
735 3 186.596 299.536 585.747
968 1 596.761 302.273 576.403
1041 1 428.703 340.427 570.714
995 2 500.518 321.102 566.497
1631 2 449.022 365.256 563.657
1095 1 670.998 357.878 571.06
1737 1 90.2189 377.808 560.374
1790 2 406.154 395.018 570.738
223 3 462.729 387.938 580.834
1859 1 8.15312 9.31245 612.407
446 3 384.849 10.8544 594.709
1304 2 529.242 8.98369 592.495
190 10 573.22 14.9059 600.653
189 5 565.351 11.0667 595.821
35 5 398.176 106.267 611.455
36 10 388.758 103.906 609.062
1608 2 545.263 105.678 598.245
909 2 618.617 97.4545 612.503
1468 2 426.242 137.139 602.514
1382 2 757.855 158.037 596.255
108 10 123.438 171.941 611.092
326 3 145.353 173.019 607.227
1595 1 4.65117 202.719 610.147
252 3 227.835 214.988 603.185
1209 1 284.051 215.073 598.991
477 3 445.835 224.31 589.146
1624 2 207.695 244.996 593.121
673 3 256.676 264.402 606.157
516 3 663.542 266.359 588.585
1527 1 671.312 252.098 604.357
1883 1 164.173 276.937 606.511
631 3 399.332 278.623 600.086
289 3 329.516 333.612 606.072
1068 1 536.678 334.314 606.284
677 3 677.454 321.77 596.112
652 3 124.73 360.953 600.338
1796 2 384.442 347.151 589.83
1000 2 493.708 367.332 590.973
1768 2 520.199 380.671 596.843
569 3 95.4681 17.4388 628.039
1299 2 380.799 6.31664 622.539
1808 2 789.197 14.674 637.174
1684 2 185.439 46.1286 637.853
785 3 300.221 38.9919 622.459
1324 1 498.146 43.656 628.64
399 3 734.424 29.8801 614.947
1025 2 150.553 54.041 615.499
1758 2 236.533 69.283 629.18
698 3 782.153 76.2314 636.462
765 3 596.704 94.1307 621.157
1627 2 761.454 107.918 613.939
678 3 397.939 151.215 618.043
922 2 609.468 133.403 623.611
107 5 117.961 169.708 619.155
439 3 498.578 169.138 619.038
387 3 10.599 211.838 624.173
1634 2 298.191 208.921 613.81
212 3 574.371 193.185 624.148
1528 2 600.121 201.575 638.815
389 3 614.822 202.607 619.327
1069 1 719.639 201.163 620.431
1600 2 186.642 266.422 629.387
766 3 276.044 240.93 619.119
328 3 299.781 263.354 613.541
172 10 405.864 240.939 636.227
171 5 406.847 248.672 629.964
1347 1 270.463 274.931 616.609
1173 1 420.744 279.28 628.233
1066 2 391.206 304.572 637.325
175 5 495.143 305.163 634.766
1780 2 678.032 300.23 616.679
417 3 741.015 301.123 616.73
1898 2 784.427 334.447 628.862
1556 2 72.5465 359.263 637.786
520 3 206.004 372.057 639.724
319 3 253.517 366.337 621.912
1850 2 270.426 367.085 634.853
462 3 323.423 386.117 635.315
1081 2 358.132 386.134 639.601
1300 1 483.255 397.548 629.654
1101 1 744.12 380.73 615.91
741 3 782.388 393.31 623.934
1695 2 257.327 18.5965 664.407
920 2 796.178 21.3949 657.619
231 3 28.1008 27.3884 648.015
1593 1 241.101 28.2043 665.571
1252 2 533.15 77.1341 647.038
1782 2 20.082 89.1526 654.419
616 3 160.051 94.6322 662.049
1677 1 409.016 98.4896 643.79
627 3 133.973 158.561 656.288
1542 2 143.621 138.287 664.875
241 3 379.594 153.738 648.193
748 3 89.4403 181.556 649.96
1428 2 273.794 188.139 648.483
337 3 46.3712 233.959 646.823
135 5 254.214 239.428 666.176
136 10 248.393 231.389 664.954
668 3 96.8568 246.993 655.597
1710 2 664.393 291.865 655.407
445 3 667.18 271.185 645.553
1265 2 713.164 282.808 647.747
176 10 495.596 311.003 642.871
1416 2 646.834 319.809 657.528
1419 1 790.211 306.2 654.915
866 3 299.252 343.287 641.527
186 10 691.623 363.72 665.406
185 5 698.468 367.547 659.201
1421 2 80.8243 387.943 662.793
580 3 25.6416 5.11319 680.948
1450 1 392.703 4.46854 686.577
1113 1 451.176 27.4328 685.809
1293 2 418.257 60.4652 669.33
779 3 182.909 90.6577 686.08
271 3 515.501 97.3593 690.352
661 3 168.844 149.578 692.353
1876 1 150.244 176.321 670.899
938 2 141.404 185.8 680.094
982 2 221.067 176.036 672.591
1145 2 358.623 192.984 685.891
788 3 649.733 191.988 680.914
1430 2 299.967 225.695 672.856
901 1 623.635 222.175 690.073
1771 1 144.865 249.1 674.54
543 3 679.871 256.557 670.198
275 3 454.859 290.537 673.163
501 3 24.2472 295.192 672.568
1314 1 398.925 296.741 666.833
1491 2 0.0916466 329.102 687.569
897 3 148.214 321.559 690.794
394 3 252.258 342.33 669.646
837 3 462.864 324.645 691.616
1102 1 690.254 325.956 670.385
1650 2 51.7082 358.222 677.401
1185 1 107.435 356.35 678.731
341 3 636.898 354.875 675.802
390 3 104.819 374.455 688.578
167 5 612.355 392.353 685.212
168 10 621.149 395.481 681.623
1671 2 497.001 5.26434 719.314
1226 2 551.213 50.4101 713.125
1702 1 70.2379 68.2268 709.719
1638 2 155.579 57.1981 709.627
921 2 149.379 71.8242 696.201
1493 2 773.119 75.2631 704.684
1678 1 236.784 91.0982 714.783
1652 2 269.615 83.2002 693.431
1744 2 682.057 107.798 712.977
1793 1 116.192 145.134 695.108
604 3 352.596 151.087 704.143
211 3 368.916 159.908 707.219
397 3 63.5156 169.26 707.368
1074 1 555.326 197.523 704.524
1591 2 596.078 197.573 704.519
1155 2 740.141 191.481 719.82
1333 2 769.767 196.14 718.31
13 5 264.143 234.405 717.013
1667 2 279.309 222.8 716.346
497 3 324.69 235.917 711.393
384 3 584.388 215.201 697.422
1315 1 371.602 256.533 697.166
575 3 259.84 287.275 704.769
1887 1 473.535 290.242 704.901
1856 2 671.879 277.669 712.061
463 3 697.386 286.939 696.134
1441 1 239.899 309.866 703.418
1663 2 581.057 315.107 712.966
342 3 254.495 330.299 695.845
448 3 738.775 320.619 709.965
1568 2 9.77819 384.612 698.511
405 3 210.448 388.109 712.917
489 3 292.977 394.904 705.327
396 3 520.983 391.594 696.144
1391 2 297.87 8.66108 727.108
791 3 320.898 11.0433 742.903
685 3 700.036 19.225 729.553
116 10 129.537 72.8788 742.571
115 5 120.377 71.2608 746.243
1262 2 306.456 66.0223 730.128
1515 1 79.7633 105.713 736.285
1364 2 523.238 101.433 745.808
857 3 425.63 126.597 729.327
104 10 138.529 149.829 742.765
103 5 134.747 159.074 742.286
910 2 491.964 146.205 734.059
879 3 499.393 154.287 740.293
26 10 733.75 159.705 720.929
25 5 734.471 150.739 725.298
1862 2 12.0686 167.941 727.539
371 3 458.275 175.323 735.572
1590 2 18.9579 204.839 739.855
1446 1 130.47 195.006 742.355
216 3 729.015 210.242 741.887
1356 1 774.951 195.104 732.951
14 10 272.46 232.991 722.382
382 3 411.322 219.949 740.014
973 1 43.3194 276.911 743.943
1370 2 77.3155 283.861 736.438
695 3 126.702 274.478 726.5
1318 1 264.165 288.275 724.563
140 10 290.072 294.532 734.812
139 5 295.696 301.896 731.052
705 3 395.255 309.874 725.113
1179 1 712.615 319.643 728.161
618 3 551.007 320.063 721.469
1470 2 586.155 325.978 730.483
1307 2 618.171 322.565 727.669
807 3 676.541 329.482 740.329
1714 2 708.327 324.887 733.34
352 3 761.557 336.04 722.5
68 10 659.913 367.901 743.559
1833 2 319.538 382.268 745.822
519 3 331.033 391.266 737.442
1692 2 504.87 382.973 732.69
1108 2 72.7164 22.8491 767.519
574 3 415.965 2.18056 760.532
38 10 661.455 18.6707 761.157
37 5 656.927 17.8973 770.039
134 10 237.998 47.9141 769.137
133 5 228.84 46.1359 772.739
1854 1 488.119 43.4491 769.534
514 3 539.698 27.6351 761.001
654 3 711.053 34.2971 765.698
813 3 26.9928 76.4727 753.707
1406 2 631.068 59.5363 763.874
1570 2 779.324 75.672 753.963
1666 2 716.118 97.8863 753.759
64 10 726.029 87.8873 760.512
63 5 724.172 90.4555 769.996
1619 1 425.602 109.824 747.899
1398 1 584.391 119.068 759.528
1083 1 413.108 144.911 756.742
1159 2 157.299 192.732 760.686
1735 1 157.599 206.02 761.814
472 3 321.55 202.538 752.717
1362 2 760.555 202.662 746.88
1110 1 226.207 255.719 751.071
971 2 485.454 276.861 766.646
67 5 665.436 372.554 750.475
1668 2 731.266 364.707 753.799
858 3 199.807 375.539 761.204
957 1 437.686 383.448 760.636
619 3 427.019 398.889 772.877
550 3 128.923 22.5046 799.264
691 3 280.444 18.2993 788.487
1007 2 336.228 7.01079 784.214
1168 2 451.482 4.41307 790.557
812 3 569.797 21.3775 786.318
1002 1 53.9188 28.1557 780.966
656 3 59.9227 45.6967 792.559
720 3 218.218 34.0438 789.077
1558 1 286.666 31.5168 793.26
880 3 457.692 42.3244 789.691
479 3 618.671 49.814 787.813
1505 2 754.494 32.3786 781.231
804 3 263.948 60.775 785.194
1046 2 757.647 55.5928 780.608
293 3 166.441 102.556 795.712
712 3 538.357 82.2278 786.842
856 3 667.674 97.1217 796.121
507 3 757.076 94.4196 775.365
1747 2 86.7599 132.809 797.909
436 3 735.542 123.113 794.135
1030 1 165.237 145.37 790.984
1425 2 428.893 151.228 787.003
1891 1 438.942 153.87 780.283
325 3 655.203 140.61 774.47
204 3 513.937 171.003 795.741
1746 2 628.927 168.445 781.693
125 5 367.676 204.406 788.046
126 10 375.365 198.11 786.934
340 3 672.998 193.428 783.879
1760 1 101.368 224.414 782.843
760 3 197.93 222.905 775.811
1438 2 501.852 230.295 785.849
1884 1 151.624 248.886 783.833
209 3 371.924 261.727 776.093
1672 1 604.401 247.202 774.872
768 3 589.277 246.275 794.041
1447 1 760.702 254.573 784.492
970 1 751.475 260.86 799.724
333 3 80.5531 292.344 787.724
1843 2 707.184 301.698 786.91
847 3 742.663 295.992 776.216
1124 2 32.4449 340.045 775.018
102 10 386.735 326.083 789.093
101 5 388.337 330.74 797.796
146 10 542.583 334.748 781.296
145 5 550.341 332.843 775.28
1160 1 624.669 334.77 782.429
129 5 683.073 345.35 786.034
1105 2 29.4142 354.383 797.94
821 3 372.497 349.448 788.437
130 10 681.692 349.46 795.045
89 5 17.9236 402.044 7.57972
1566 2 20.9897 421.788 7.96574
1529 2 736.004 402.781 19.251
56 10 762.25 420.346 6.44284
434 3 146.402 441.743 22.2423
595 3 270.689 445.238 5.73322
380 3 102.879 471.8 25.448
1625 1 55.635 504.479 15.1995
379 3 544.454 483.48 9.183
906 2 796.66 497.819 4.49199
882 3 424.283 523.496 23.933
98 10 360.556 539.299 26.1545
494 3 536.748 552.044 4.89465
1539 1 524.695 575.161 8.08214
403 3 392.701 586.692 11.6388
1321 2 489.668 599.716 4.26089
99 5 418.46 636.107 9.03124
537 3 513.731 623.503 18.475
470 3 198.235 644.441 24.8404
100 10 417.61 641.667 0.763384
1557 2 623.169 669.929 10.835
859 3 701.531 672.977 8.62614
1866 2 129.758 708.81 18.4985
222 3 423.188 705.785 10.6528
1171 2 264.106 742.044 18.8796
429 3 455.187 730.229 0.265616