ITEM: TIMESTEP
20000
ITEM: NUMBER OF ATOMS
1900
ITEM: BOX BOUNDS pp pp pp
0.0000000000000000e+00 8.0000000000000000e+02
0.0000000000000000e+00 8.0000000000000000e+02
0.0000000000000000e+00 8.0000000000000000e+02
ITEM: ATOMS id type x y z
1501 1 27.2385 43.4035 4.3408
461 3 173.849 58.7635 3.13341
628 3 184.203 64.8517 23.7528
1815 1 272.236 66.1978 3.26796
900 3 398.107 73.0632 4.97781
1036 1 607.293 61.8716 17.2745
1868 1 239.182 98.751 4.7883
1103 1 554.085 81.0708 20.5354
1712 1 653.205 86.119 23.7905
1321 1 49.992 123.99 6.66912
719 3 649.121 158.629 7.88589
723 3 686.309 164.264 15.6038
1542 1 172.319 194.337 9.44111
1210 1 209.118 192.914 10.7522
1856 1 521.129 209.147 1.71253
1796 1 56.569 233.851 13.9549
1237 1 720.625 213.99 20.9657
688 3 312.665 243.295 24.6781
957 1 401.898 243.143 0.953481
331 3 709.082 251.858 1.83712
1871 1 48.9285 272.337 0.0545786
1679 1 90.6744 287.081 4.57871
29 5 152.245 303.393 26.2717
30 10 146.025 310.692 23.439
529 3 326.854 312.923 12.1443
314 3 107.007 361.167 17.1568
1178 1 12.9997 374.952 23.418
238 3 244.676 379.94 24.8639
733 3 439.319 391.163 18.461
936 1 573.424 382.77 8.54039
1749 1 599.379 386.343 21.654
421 3 711.28 377.069 17.5683
326 3 136.466 21.3407 53.0418
951 1 375.11 14.7088 27.6388
1128 1 638.661 21.7959 47.8565
1592 1 664.869 50.1271 52.437
281 3 246.572 75.9773 41.0403
1861 1 338.078 69.0476 44.2269
930 1 79.8335 85.0027 44.8923
504 3 473.898 86.869 37.5605
7 5 238.321 126.266 42.6895
8 10 240.343 126.561 52.4784
568 3 600.09 141.847 45.5549
576 3 374.41 174.905 41.0527
669 3 613.45 182.595 50.1997
772 3 523.412 194.386 37.3566
1352 1 704.791 212.554 51.2506
328 3 783.749 209.238 30.3207
1010 1 177.278 231.278 43.7484
1291 1 427.699 226.518 40.6334
1685 1 543.411 229.102 41.4538
1802 1 540.898 256.895 30.5056
300 3 718.527 263.09 32.0028
1781 1 777.3 266.404 31.3253
964 1 570.996 289.05 42.6498
831 3 494.487 337.606 43.0043
1078 1 515.783 328.307 47.1344
556 3 616.707 334.748 33.4183
935 1 228.943 383.397 45.3292
804 3 108.246 35.8288 61.4925
345 3 254.934 46.3483 74.0454
1265 1 443.345 29.9705 75.2018
795 3 502.23 54.2068 59.3272
1689 1 116.718 97.2538 67.1994
1093 1 479.236 92.2431 65.3041
1748 1 601.201 98.4493 59.6548
1836 1 317.219 143.882 79.3892
1563 1 482.207 179.365 72.321
473 3 51.1186 238.053 79.9334
378 3 430.914 264.012 61.2148
295 3 592.829 275.517 70.6508
1617 1 492.58 297.784 67.7757
1004 1 680.351 312.538 62.5841
1593 1 264.925 338.863 76.4129
561 3 447.777 336.949 54.7621
447 3 216.473 347.536 62.6421
822 3 439.09 357.691 73.569
1421 1 523.478 362.437 75.9747
1736 1 653.709 355.815 67.2592
1804 1 580.389 393.086 59.4969
1747 1 274.055 1.16581 105.352
1044 1 388.137 51.0162 100.261
1395 1 40.3502 75.0465 99.1928
1349 1 266.844 62.7769 97.9075
444 3 682.895 60.1757 87.3632
742 3 83.0014 116.666 84.6603
1860 1 127.476 111.328 91.7945
1413 1 334.418 122.753 85.4034
113 5 523.271 123.426 100.593
114 10 527.643 123.788 91.6069
704 3 740.645 146.092 87.3825
192 10 796.801 145.006 84.3226
191 5 793.222 135.686 84.8979
1154 1 113.524 170.887 99.5493
863 3 46.2442 197.761 104.684
862 3 712.964 206.501 85.2145
612 3 765.738 204.452 100.498
280 3 460.807 222.375 88.3615
666 3 464.866 239.128 105.238
1034 1 543.25 238.496 92.6679
907 1 431.906 257.908 99.0017
250 3 195.165 292.976 96.4032
1759 1 423.629 268.739 104.572
1821 1 481.048 288.74 84.3798
241 3 628.533 315.209 92.2998
246 3 375.55 331.273 92.5201
1119 1 59.2409 354.977 100.174
515 3 127.968 362.697 80.9638
889 3 333.183 372.172 91.059
2 10 58.4175 23.8339 121.517
1 5 58.5395 19.6425 130.595
569 3 165.815 1.90844 113.458
1621 1 386.024 6.57465 110.894
1670 1 387.517 17.1586 129.464
659 3 434.564 12.0572 121.284
1543 1 528.658 47.5076 115.908
796 3 127.142 58.0252 106.986
1761 1 277.287 59.3312 115.433
1060 1 433.212 71.6709 120.401
977 1 468.485 54.1615 120.753
798 3 56.8087 96.1587 130.922
259 3 92.515 90.6942 116.722
963 1 435.949 80.6328 125.959
596 3 632.8 83.0445 109.075
1452 1 622.464 96.6732 128.39
1331 1 593.794 122.499 132.449
1633 1 360.476 142.421 130.499
1048 1 463.9 149.693 113.075
275 3 611.987 144.007 109.636
257 3 495.433 169.294 117.92
289 3 701.716 186.391 130.468
59 5 48.0288 235.207 129.771
60 10 56.4255 232.976 124.819
477 3 295.202 226.764 132.029
896 3 57.3239 255.984 113.905
472 3 138.64 241.185 124.56
859 3 410.872 247.41 107.177
959 1 449.634 252.813 131.419
1495 1 534.856 243.97 109.313
1656 1 556.826 259.179 120.398
1655 1 333.726 278.942 109.028
1074 1 558.502 270.701 128.496
1772 1 4.85592 309.284 115.444
1411 1 503.555 296.667 132.029
89 5 360.339 346.414 123.997
897 3 21.5356 368.861 130.595
90 10 359.576 348.678 114.286
1235 1 376.638 370.385 112.268
464 3 586.857 363.8 125.445
1701 1 362.96 395.027 114.474
726 3 529.827 388.434 132.584
1485 1 512.905 395.292 131.391
1307 1 105.008 25.8879 150.907
398 3 201.013 25.1004 145.527
1329 1 9.16521 79.294 141.39
874 3 717.187 62.9675 138.492
329 3 21.7375 80.1514 151.872
1108 1 674.018 84.2179 141.438
279 3 695.496 98.8793 144.061
158 10 25.141 121.931 152.623
157 5 23.0844 112.169 151.934
1895 1 57.137 165.183 150.259
1296 1 665.144 186.161 151.67
1746 1 671.33 183.074 144.8
985 1 165.125 206.503 137.36
1277 1 274.434 200.653 134.951
1536 1 350.89 214.749 159.856
366 3 490.535 266.474 143.877
1056 1 579.046 240.454 149.426
1481 1 719.645 248.227 137.014
1104 1 191.054 283.813 137.132
883 3 430.787 286.046 146.947
1375 1 446.747 283.25 144.921
1586 1 174.45 313.698 146.04
1611 1 272.112 316.861 156.054
443 3 439.527 335.14 138.072
934 1 608.565 326.918 144.313
1051 1 652.184 320.54 136.757
1557 1 753.685 322.927 159.311
502 3 67.3772 368.696 136.271
1565 1 184.06 366.221 145.758
598 3 436.19 365.199 147.156
1115 1 267.536 394.28 142.735
1715 1 362.604 374.432 144.105
1483 1 583.56 391.206 138.996
814 3 78.8982 20.7032 162.081
1716 1 152.185 13.5403 172.598
287 3 171.506 21.7812 176.031
322 3 283.295 24.9181 162.169
865 3 523.321 19.7683 185.193
1672 1 130.418 50.3003 166.149
1409 1 544.3 52.5098 170.565
1724 1 659.309 50.6912 179.448
1496 1 106.986 62.4297 177.812
48 10 46.9703 94.8493 166.995
47 5 56.7627 94.6489 169.012
1076 1 544.099 99.847 185.591
597 3 722.473 98.7366 164.604
1539 1 303.386 123.747 174.7
1404 1 38.034 171.942 163.498
433 3 504.964 172.198 182.245
785 3 243.309 188.354 165.432
1220 1 515.223 213.235 185.695
1258 1 114.299 253.981 172.538
833 3 218.687 248.245 178.629
1638 1 261.817 251.398 160.992
729 3 799.084 240.036 167.97
587 3 131.921 272.228 182.51
1066 1 249.157 291.606 184.347
709 3 544.493 279.952 177.248
738 3 159.742 317.675 185.766
954 1 767.821 303.679 164.225
1262 1 564.013 331.971 168.627
1632 1 680.125 330.522 165.207
1251 1 579.976 363.985 166.446
408 3 267.503 17.1376 208.749
245 3 212.329 34.4712 200.049
707 3 19.2473 66.5781 196.363
950 1 24.5441 75.8788 189.584
1144 1 497.006 106.079 197.511
909 1 4.48221 119.331 188.671
660 3 144.047 113.214 207.538
1545 1 676.205 131.059 192.791
786 3 410.853 157.982 197.918
1590 1 561.578 150.114 191.923
172 10 608.541 149.451 187.76
171 5 609.46 139.624 189.368
588 3 544.757 209.127 189.63
1778 1 583.88 211.572 197.625
1540 1 681.15 196.449 209.278
1133 1 138.915 215.344 203.219
722 3 170.108 287.015 204.725
910 1 222.61 275.223 200.274
1898 1 521.66 294.492 197.747
899 3 539.118 302.074 199.721
931 1 599.593 296.765 190.505
714 3 704.022 318.658 203.094
1551 1 550.027 331.573 205.478
1003 1 215.805 346.726 208.597
298 3 298.724 366.058 199.295
1370 1 351.596 355.859 203.872
777 3 628.347 366.903 204.407
873 3 759.92 2.34187 218.011
1872 1 60.7292 63.7928 219.991
816 3 582.947 99.1616 228.511
961 1 732.736 101.379 221.811
1134 1 456.482 133.651 219.884
894 3 10.8107 180.28 221.643
320 3 311.542 161.099 213.591
1106 1 379.085 162.666 229.701
1338 1 435.245 183.818 221.908
1089 1 559.649 181.251 235.317
1013 1 579.198 203.405 226.689
1756 1 571.6 213.099 231.843
1869 1 635.988 202.403 225.626
1500 1 753.496 193.429 221.522
1494 1 292.492 243.864 215.53
1575 1 491.104 262.95 220.007
1229 1 518.573 265.867 239.157
505 3 61.8008 291.832 213.729
620 3 219.61 277.857 215.671
436 3 608.069 287.648 221.044
1356 1 688.997 301.946 222.26
1143 1 196.599 334.434 228.717
1097 1 413.871 339.316 216.508
1379 1 130.706 350.264 235.154
1369 1 330.53 355.556 213.784
362 3 754.475 372.42 230.184
1606 1 535.512 381.596 226.455
871 3 4.44969 17.1542 266.203
439 3 236.888 23.506 242.444
1233 1 343.389 30.5419 244.138
452 3 479.372 28.9248 255.15
64 10 577.544 47.5507 253.153
1098 1 747.812 39.3092 253.881
1095 1 228.044 71.3503 254.812
653 3 321.877 58.1114 265.764
63 5 580.198 55.2152 259.002
360 3 609.633 78.0155 251.768
1892 1 10.5925 104.6 266.002
817 3 63.3926 99.8808 265.648
1402 1 195.842 80.7952 245.016
335 3 241.957 84.6127 265.513
926 1 684.664 81.7633 258.052
1127 1 348.169 107.412 244.451
755 3 161.359 141.31 262.204
890 3 278.385 151.653 255.318
469 3 396.394 161.217 253.835
210 3 655.897 175.733 240.356
662 3 651.417 170.937 263.284
748 3 706.292 174.931 247.09
222 3 49.0735 195.779 244.639
1040 1 371.02 208.135 260.068
1122 1 410.842 209.287 255.127
700 3 490.197 227.56 257.991
420 3 510.1 251.172 260.609
646 3 717.603 244.253 257.037
1531 1 757.521 268.781 265.914
1205 1 246.657 316.071 266.326
841 3 513.08 308.052 250.028
1206 1 157.832 351.404 251.187
1482 1 644.826 376.822 252.745
730 3 303.076 39.5497 290.904
429 3 371.823 28.7804 276.285
882 3 636.629 35.692 292.447
255 3 120.013 81.8699 291.161
1032 1 566.147 90.7731 286.577
1499 1 621.586 84.61 291.852
483 3 752.044 123.284 281.894
1389 1 574.255 143.57 288.908
1171 1 175.98 173.839 284.916
1842 1 365.277 172.489 285.88
251 3 728.479 185.412 273.884
1186 1 150.025 226.6 285.102
1027 1 230.341 242.87 284.06
1126 1 227.229 246.085 283.196
1579 1 123.446 284.163 289.462
1549 1 476.121 270.023 280.803
202 3 133.237 345.018 273.764
937 1 242.392 329.121 291.618
319 3 103.132 363.789 269.576
381 3 342.902 353.563 272.561
768 3 602.876 370.546 274.027
503 3 728.881 354.214 277.14
1660 1 337.867 399.932 282.551
1881 1 217.671 0.712807 297.146
392 3 63.1721 39.2971 300.767
336 3 447.121 67.9774 295.286
803 3 520.671 71.0092 295.387
861 3 23.7837 93.6818 318.068
1562 1 278.366 105.721 299.339
1797 1 149.6 123.057 294.593
1116 1 334.929 112.872 303.411
1407 1 345.674 114.525 307.011
1474 1 99.2552 157.352 306.814
1434 1 104.353 150.705 305.01
1561 1 112.7 150.672 312.154
1273 1 549.301 168.155 305.598
478 3 216.128 212.505 318.366
422 3 289.187 208.036 297.765
270 3 723.525 189.348 310.593
640 3 792.375 216.751 298.388
152 10 531.993 270.184 319.781
696 3 105.772 307.627 317.881
471 3 747.915 318.63 315.686
521 3 40.8726 330.715 299.409
721 3 698.041 320.963 296.332
511 3 730.873 366.801 303.11
1552 1 200.838 7.07224 346.196
305 3 669.26 11.7541 324.162
1825 1 505.069 29.6554 325.056
1880 1 531.081 38.0298 320.067
493 3 86.3429 58.8949 330.287
1422 1 211.019 63.7023 343.27
1511 1 457.867 63.1406 323.113
558 3 566.481 55.2755 320.661
1695 1 648.487 79.8417 327.613
705 3 748.027 56.7017 333.211
1285 1 99.4048 83.838 332.194
1492 1 495.85 111.207 334.831
1181 1 585.62 114.708 342.423
467 3 683.292 125.098 329.545
1327 1 123.645 149.838 329.108
1367 1 269.084 143.665 323.348
857 3 486.427 140.266 330.968
1665 1 547.629 139.982 327.882
154 10 793.172 149.98 346.408
1813 1 66.8181 176.738 328.32
1801 1 377.136 172.965 338.464
811 3 193.789 197.343 331.858
658 3 795.256 201.781 330.554
948 1 79.713 225.75 333.491
1487 1 315.722 216.363 323.508
1553 1 478.377 230.856 339.685
1429 1 582.339 221.638 332.906
1416 1 794.531 228.537 335.906
391 3 259.682 244.717 334.803
283 3 370.814 262.456 321.572
546 3 527.517 248.444 320.595
151 5 525.88 277.784 321.988
1466 1 119.14 315.06 339.787
282 3 229.691 313.573 335.806
1763 1 368.55 305.049 320.706
269 3 435.178 327.093 332.3
499 3 172.734 384.874 331.321
435 3 312.087 392.852 328.826
969 1 556.735 26.372 364.644
1576 1 63.5367 37.3558 352.193
1240 1 104.907 28.9102 352.219
991 1 430.271 37.0212 352.863
458 3 741.963 39.1858 353.766
986 1 591.895 60.4638 361.526
1137 1 713.278 72.5205 361.512
667 3 271.81 90.9825 364.915
1423 1 354.457 86.4709 357.289
1580 1 466.337 86.2243 352.177
1019 1 463.863 93.2948 359.423
1390 1 545.745 87.1581 359.786
530 3 696.349 88.1689 372.869
1263 1 301.143 111.114 351.874
693 3 613.737 124.613 365.746
1826 1 741.738 130.242 363.004
153 5 792.763 150.85 356.362
385 3 292.603 175.371 364.203
1800 1 319.274 170.174 348.457
613 3 510.465 168.057 348.586
809 3 679.897 162.623 351.782
1753 1 29.477 206.59 357.148
741 3 337.722 188.461 351.506
847 3 287.168 230.068 351.026
1408 1 793.398 228.021 358.616
1792 1 765.142 253.727 365.436
983 1 151.226 280.075 352.474
537 3 606.78 283.259 347.926
1569 1 795.591 290.154 351.859
415 3 422.093 319.792 361.666
790 3 452.409 314.767 346.96
357 3 467.512 318.819 363.317
715 3 278.21 323.337 365.099
466 3 616.088 335.843 372.623
496 3 717.261 329.905 347.392
1403 1 176.391 364.484 347.558
1776 1 285.443 349.265 354.949
539 3 660.472 349.934 361.575
1680 1 34.3417 376.219 352.457
1405 1 328.761 378.725 365.498
1752 1 437.818 379.983 355.356
652 3 272.416 10.5503 375.555
797 3 299.108 33.1205 378.566
371 3 158.118 75.6054 383.393
1070 1 307.01 74.3944 389.227
138 10 649.382 129.966 396.052
1706 1 74.7052 159.957 382.111
1790 1 318.82 149.741 399.095
19 5 336.436 146.608 395.796
1707 1 757.025 146.955 386.216
1039 1 665.061 179.76 383.819
947 1 332.972 206.888 394.596
144 10 794.825 200.722 390.718
143 5 793.4 190.916 392.063
247 3 244.042 227.689 399.312
616 3 682.75 236.518 387.185
1730 1 116.988 256.14 398.404
389 3 579.851 252.774 397.978
184 10 792.698 263.946 384.267
183 5 1.64376 267.751 381.925
877 3 26.0651 306.659 394.28
1594 1 166.775 301.844 375.34
756 3 350.076 305.828 387.7
1744 1 611.282 305.433 377.322
1007 1 531.608 345.048 375.032
651 3 785.26 347.878 377.761
128 10 309.548 378.261 386.795
1513 1 298.71 395.231 376.491
127 5 302.463 385.129 385.169
455 3 334.267 386.528 396.332
1613 1 359.078 398.16 389.448
1799 1 415.014 374.567 384.898
842 3 640.503 386.012 389.531
794 3 696.498 18.5914 403.747
338 3 151.432 34.3074 412.305
1164 1 233.397 42.2533 423.95
133 5 408.436 36.0929 409.617
134 10 416.861 41.3748 410.673
824 3 492.467 47.2826 404.557
1507 1 761.771 51.0145 415.454
921 1 398.471 63.3248 419.107
1652 1 726.084 98.4319 408.612
1275 1 599.049 125.818 403.504
137 5 641.924 131.191 402.599
20 10 342.274 147.604 403.854
370 3 613.721 209.799 426.27
484 3 20.1863 225.402 408.011
806 3 112.01 240.202 413.714
1854 1 642.245 261.928 417.339
967 1 738.96 252.582 403.122
1101 1 259.338 291.291 423.518
1516 1 400.115 282.547 405.81
1433 1 598.133 291.881 403.215
643 3 699.429 293.834 424.956
1363 1 579.293 342.556 416.571
590 3 182.808 353.359 410.302
1690 1 550.474 349.757 403.449
942 1 544.139 397.598 425.913
1211 1 124.12 37.3516 427.952
231 3 10.8789 69.9635 431.343
1348 1 329.34 60.795 438.577
1406 1 578.027 67.3693 442.799
1234 1 296.182 86.6551 451.706
498 3 793.593 104.52 427.183
638 3 211.882 129.409 435.179
925 1 410.822 107.198 442.954
1758 1 603.496 124.701 427.723
1598 1 72.0248 147.32 437.597
1493 1 488.818 151.875 431.504
1246 1 8.40509 173.088 453.191
713 3 401.689 166.922 440.276
451 3 648.381 163.977 450.909
1832 1 782.427 184.43 433.973
1798 1 221.857 208.768 441.04
1167 1 507.066 202.936 444.982
955 1 415.673 263.128 435.38
512 3 458.833 246.787 452.109
929 1 325.546 277.45 433.454
695 3 365.94 278.541 439.039
1330 1 139.433 299.116 444.9
492 3 423.44 305.109 443.892
424 3 5.39728 370.525 428.606
240 3 247.69 365.92 442.693
901 1 37.8683 392.685 431.342
708 3 515.51 389.367 450.055
50 10 7.35966 15.8663 459.788
791 3 360.866 3.66019 465.105
1603 1 666.404 16.1896 456.495
49 5 798.886 19.7649 456.182
110 10 1.0558 48.3595 473.141
140 10 17.6921 49.971 464.73
736 3 268.258 42.906 461.283
1831 1 490.416 45.6269 463.32
286 3 572.823 31.2484 476.583
139 5 24.1394 57.5168 463.509
1878 1 632.408 77.7137 474.662
1467 1 769.124 60.2381 475.717
109 5 795.371 56.5359 472.232
44 10 178.285 94.3449 467.674
43 5 185.876 88.1881 469.787
353 3 179.118 114.533 479.293
1350 1 347.45 126.631 471.345
1239 1 225.065 142.658 459.795
1760 1 492.06 138.645 465.044
1160 1 574.974 156.992 476.084
1123 1 652.011 150.959 460.357
1227 1 687.359 141.922 461.789
77 5 371.966 179.547 457.726
37 5 713.809 167.185 455.787
38 10 722.643 165.258 460.059
1305 1 253.45 195.579 477.07
440 3 352.36 205.005 472.253
78 10 376.553 187.996 460.475
395 3 475.746 194.876 471.239
560 3 721.308 190.151 479.848
1650 1 435.766 225.437 471.772
880 3 15.0345 248.586 454.572
1304 1 482.101 279.169 461.13
450 3 500.516 293.017 470.733
853 3 711.267 268.839 467.715
1357 1 364.34 317.588 457.55
149 5 583.625 310.086 464.842
150 10 580.062 305.384 456.768
1889 1 12.5536 326.465 469.127
1294 1 2.65512 337.058 458.589
1745 1 529.179 345.264 478.339
1544 1 634.068 345.227 465.448
239 3 168.315 368.499 470.636
339 3 567.105 354.437 465.01
176 10 731.597 366.241 459.142
175 5 721.69 367.063 458.06
1057 1 771.76 347.911 468.838
1159 1 25.0379 393.878 478.715
1287 1 188.918 381.511 478.239
1708 1 344.205 383.419 453.829
182 10 452.382 397.853 457.395
1274 1 325.952 5.8405 483.289
1622 1 791.965 13.7457 492.058
442 3 498.095 51.9602 498.323
998 1 57.9422 67.9593 502.035
1848 1 113.444 67.4302 499.048
784 3 256.776 68.6288 500.544
1447 1 428.949 65.0835 488.006
423 3 559.98 57.3666 498.201
668 3 393.514 82.3337 492.309
734 3 465.97 80.6021 497.244
911 1 391.394 124.602 504.749
1850 1 639.352 137.282 481.419
1086 1 396.827 173.275 483.172
1822 1 453.168 170.031 491.207
572 3 669.074 168.604 480.473
369 3 191.782 199.003 495.802
1260 1 511.735 201.47 493.758
1726 1 668.401 187.325 505.503
1583 1 777.999 202.477 482.906
1599 1 220.938 233.831 501.734
1142 1 369.106 213.405 488.233
1165 1 376.656 226.409 503.355
1767 1 546.995 242.274 502.486
324 3 682.941 258.338 504.811
917 1 719.795 244.333 498.394
962 1 101.166 276.34 486.622
601 3 319.948 285.981 502.504
1587 1 679.668 277.987 489.338
272 3 206.723 298.638 488.09
1151 1 455.294 313.145 481.227
924 1 513.653 295.686 505.166
972 1 713.669 317.67 488.271
1014 1 475.224 395.713 481.738
1325 1 601.605 379.536 502.835
1841 1 703.987 376.404 495.743
1843 1 107.385 7.34606 510.278
938 1 187.019 23.9504 519.958
1420 1 194.139 12.8935 532.467
418 3 67.3958 27.7923 521.337
1162 1 86.4937 35.7112 512.403
1732 1 518.217 38.8223 516.434
426 3 693.937 35.6319 510.148
984 1 50.9438 62.5463 532.851
264 3 695.5 77.0738 512.711
46 10 234.195 88.4762 531.353
45 5 240.837 95.9316 530.798
1257 1 419.259 85.9189 516.349
446 3 541.366 94.4689 511.721
516 3 579.308 93.6171 529.499
1867 1 487.144 131.103 518.102
476 3 209.607 134.435 523.952
1082 1 240.092 147.932 511.359
614 3 483.217 143.789 507.892
1332 1 622.895 156.191 513.506
253 3 262.682 175.905 519.093
1221 1 601.506 202.207 521.02
1807 1 542.969 235.185 531.293
851 3 579.058 221.68 520.395
1096 1 12.0112 261.374 526.933
551 3 172.779 265.963 532.491
759 3 628.904 241.603 511.708
316 3 168.326 286.862 527.664
402 3 225.448 281.068 518.442
104 10 398.084 276.479 507.364
103 5 400.944 268.759 513.04
1855 1 729.45 283.137 523.06
1354 1 253.936 305.348 531.132
1884 1 731.802 302.706 531.58
776 3 55.9953 320.233 510.718
920 1 73.5632 344.027 523.772
323 3 138.771 344.315 516.484
1743 1 202.643 353.512 531.621
830 3 494.239 366.632 520.337
1737 1 256.81 390.298 526.989
1486 1 388.148 384.385 510.177
207 3 547.524 8.26186 538.295
1209 1 474.547 35.7692 548.331
532 3 488.279 43.1717 555.867
1601 1 575.387 43.1051 550.578
781 3 596.162 44.69 542.432
304 3 650.753 52.578 533.849
520 3 711.797 41.0635 552.231
427 3 732.011 39.8489 553.737
1436 1 336.546 62.5319 543.911
1830 1 474.646 55.7658 537.588
980 1 486.998 79.0935 541.858
1443 1 232.673 87.0703 536.417
525 3 403.196 94.0604 559.867
1197 1 395.516 120.429 546.609
585 3 154.145 151.856 551.818
524 3 764.328 168.762 542.317
1814 1 317.962 187.626 550.874
165 5 527.85 212.384 542.639
166 10 524.489 203.003 543.48
607 3 724.869 234.611 543.225
330 3 195.237 280.612 536.738
1026 1 408.174 306.948 552.351
1794 1 126.375 326.317 539.921
1762 1 589.663 357.114 541.35
1728 1 778.078 373.016 538.332
1222 1 370.258 391.754 557.8
1739 1 629.771 374.113 551.815
718 3 753.148 381.654 548.44
348 3 142.018 7.02873 566.159
1491 1 672.19 13.6385 563.379
1620 1 685.961 9.16776 565.583
1183 1 769.694 15.7934 577.345
216 3 793.773 22.4754 560.908
1247 1 642.684 40.8902 576.459
209 3 649.878 28.7968 561.519
892 3 79.7889 107.862 580.2
1426 1 13.7952 170.121 565.45
852 3 513.784 184.93 580.471
403 3 279.998 192.515 568.351
1451 1 295.716 193.596 561.732
993 1 561.96 197.839 573.796
1607 1 683.748 192.872 574.668
1558 1 425.974 222.451 578.135
933 1 441.697 228.208 567.576
1477 1 697.699 216.792 577.397
686 3 247.087 255.117 566.147
261 3 515.688 274.282 579.324
886 3 136.197 307.171 579.162
1555 1 311.72 306.331 569.788
1129 1 665.568 319.229 579.898
674 3 141.875 326.657 572.779
294 3 174.502 335.586 585.742
1717 1 272.087 342.976 576.229
39 5 655.326 324.715 567.173
40 10 649.726 332.622 564.7
1261 1 62.8031 368.586 563.216
1510 1 226.463 354.746 573.029
1731 1 737.472 362.026 565.865
1309 1 275.094 13.3982 606.362
885 3 464.924 12.1809 594.92
1430 1 581.127 45.2386 594.144
649 3 654.815 43.8525 588.802
519 3 141.039 76.4288 596.134
1637 1 409.927 63.1542 599.169
1853 1 338.573 90.3055 592.872
244 3 553.366 102.31 609.466
386 3 332.678 107.117 593.141
1765 1 244.905 135.854 595.467
728 3 350.063 169.691 595.43
1700 1 441.863 173.574 599.429
17 5 684.163 195.056 590.707
18 10 684.498 195.336 600.698
805 3 410.532 231.593 603.341
1383 1 634.352 221.414 597.118
42 10 458.378 240.777 609.051
544 3 618.717 290.844 607.394
1152 1 204.677 302.812 611.215
468 3 441.156 309.247 592.879
190 10 607.779 340.933 593.087
189 5 603.917 333.268 587.956
828 3 281.808 355.346 606.619
1619 1 466.554 349.471 607.726
617 3 215.742 382.164 603.692
1682 1 318.411 384.23 598.704
1741 1 390.075 373.693 591.566
1105 1 630.592 374.126 599.14
419 3 277.413 26.6312 636.732
15 5 740.14 8.82393 637.625
16 10 747.998 2.83442 639.166
906 1 784.267 10.9759 617.522
1641 1 406.381 48.9124 630.967
1374 1 366.071 72.7117 629.415
1440 1 53.4813 85.8391 634.114
460 3 775.641 94.0879 620.703
226 3 122.605 133.47 627.113
644 3 345.043 139.098 627.381
849 3 193.463 181.992 614.63
837 3 564.81 192.639 626.32
1703 1 665.416 199.764 635.052
1817 1 753.177 190.15 628.297
374 3 90.3213 230.208 634.949
41 5 466.433 237.915 614.24
1446 1 700.74 228.584 614.657
820 3 247.319 260.994 624.433
146 10 450.885 255.262 630.706
145 5 458.022 248.44 629.124
1088 1 678.919 281.802 622.606
1214 1 473.059 316.045 625.807
1609 1 187.792 342.092 627.656
690 3 265.05 326.179 637.636
1050 1 680.172 342.961 628.036
1541 1 722.94 366.854 634.774
1417 1 217.176 388.007 638.58
846 3 279.126 374.409 628.091
54 10 225.786 19.8997 664.459
53 5 220.133 11.6521 664.608
1064 1 467.546 9.97366 650.004
1550 1 653.614 12.1707 651.029
197 5 715.257 23.2177 663.511
350 3 45.3697 37.1324 643.241
773 3 441.621 51.2869 665.755
1628 1 676.472 31.8437 657.465
198 10 723.565 28.1307 666.126
358 3 68.6009 72.2712 643.876
206 3 226.224 79.4164 664.063
1793 1 702.392 99.7923 646.494
949 1 447.842 132.74 661.616
1061 1 693.524 115.955 665.561
665 3 301.891 145.648 655.821
346 3 477.979 147.451 655.344
1449 1 619.455 159.269 654.448
12 10 131.543 178.661 663.266
11 5 134.735 169.379 665.173
1342 1 264.386 209.374 662.738
1900 1 262.366 200.297 648.236
826 3 744.19 233.683 641.986
404 3 749.484 217.873 662.946
1653 1 252.601 241.763 661.363
1865 1 265.481 270.077 659.806
1256 1 343.153 290.145 660.476
522 3 736.903 269.016 663.48
1693 1 185.739 300.65 644.804
249 3 579.935 327.586 657.107
1087 1 106.347 351.67 645.32
916 1 123.483 355.364 647.662
533 3 412.983 368.715 645.026
170 10 632.919 368.826 666.574
88 10 740.708 372.375 661.597
1071 1 67.1107 396.49 651.712
268 3 473.357 389.799 661.439
1297 1 519.121 384.786 647.774
87 5 732.585 378.135 660.677
1280 1 355.979 13.6817 667.637
727 3 557.682 10.757 692.944
888 3 785.614 17.9208 684.188
274 3 32.7491 37.2217 687.225
712 3 104.772 33.4051 683.457
1268 1 205.095 31.0091 667.82
131 5 290.98 42.7402 676.912
132 10 282.87 37.6896 673.961
1738 1 615.508 41.5862 688.661
489 3 692.131 30.0262 683.274
884 3 776.399 35.6709 672.423
1372 1 87.2506 67.4033 674.128
599 3 391.913 76.6904 691.374
1527 1 619.446 77.9378 679.527
1506 1 665.444 101.317 692.491
1870 1 328.142 107.178 692.634
971 1 531.38 133.12 682.381
1858 1 266.829 141.458 686.889
1360 1 99.5855 185.33 687.492
1146 1 143.583 166.912 690.091
292 3 160.77 178.769 691.309
52 10 670.246 202.681 681.84
51 5 668.286 212.432 680.804
1547 1 159.608 218.504 679.653
604 3 52.1393 256.833 673.567
1635 1 390.459 286.485 682.536
1725 1 388.767 313.251 667.044
301 3 541.487 303.064 691.749
1156 1 797.117 316.777 672.365
1490 1 68.8339 341.91 671.108
848 3 3.82233 349.884 667.168
215 3 692.255 349.574 687.924
1047 1 80.2498 386.431 690.154
169 5 640.077 375.796 667.004
1534 1 680.164 6.95457 695.168
1845 1 35.0812 27.024 711.361
818 3 735.33 35.7382 718.112
361 3 446.239 104.115 708.581
1281 1 99.2435 132.805 710.565
101 5 129.253 111.329 716.882
102 10 132.474 119.236 711.676
1388 1 748.59 149.304 715.798
1170 1 56.2154 174.903 715.815
1303 1 118.887 171.614 715.084
332 3 358.605 181.17 719.876
1132 1 567.876 211.154 702.748
815 3 639.259 209.482 719.082
678 3 669.033 199.412 713.335
1049 1 279.798 222.964 705.769
506 3 204.107 240.716 698.656
62 10 609.256 247.153 711.015
61 5 600.607 245.593 706.244
881 3 42.9889 276.55 711.138
1891 1 220.517 277.491 694.9
236 3 293.642 279.798 701.278
1418 1 184.414 312.829 700.026
459 3 596.171 297.553 700.156
681 3 688.479 320.934 700.078
1175 1 487.256 364.191 702.811
1192 1 557.433 354.657 718
1109 1 211.45 395.714 705.574
1063 1 375.416 378.01 701.523
1157 1 50.9589 22.9649 730.239
1317 1 226.662 13.2305 725.187
1649 1 17.5737 51.485 737.036
1827 1 772.014 45.4464 720.317
699 3 149.406 63.3847 736.466
1259 1 56.5804 91.0691 742.707
1028 1 283.346 99.267 744.058
1582 1 462.825 90.6787 730.998
271 3 542.221 89.5075 727.95
1427 1 29.6086 113.146 739.676
1686 1 290.524 119.434 720.101
677 3 369.399 145.527 732.563
1328 1 353.362 163.618 722.574
1435 1 514.172 166.524 725.814
808 3 631.66 181.414 726.956
313 3 120.275 206.422 726.407
1533 1 655.883 205.971 725.901
412 3 620.71 236.084 722.003
1462 1 189.424 269.592 733.617
9 5 287.505 287.494 729.328
10 10 293.578 284.764 721.867
510 3 408.589 271.309 724.624
1102 1 635.633 295.18 744.312
1437 1 275.509 327.624 726.741
1346 1 614.018 335.665 727.58
1673 1 601.951 355.023 728.094
1636 1 158.289 0.594203 754.35
838 3 397.876 17.41 753.436
1654 1 583.96 15.3547 752.991
1031 1 7.00482 49.1968 763.645
758 3 408.86 36.2231 757.067
221 3 379.428 62.3938 759.239
1874 1 692.411 79.226 752.763
547 3 105.495 87.9855 760.898
120 10 167.618 98.2277 754.98
119 5 161.563 106.179 754.641
1893 1 783.733 97.7377 762.7
1684 1 403.194 107.12 760.986
622 3 625.671 118.987 770.873
67 5 272.667 144.714 767.024
68 10 278.03 136.837 770.057
630 3 8.35647 170.54 756.896
288 3 498.163 166.385 770.275
779 3 580.88 165.016 757.026
1276 1 727.292 176.165 767.312
56 10 753.63 165.104 759.261
55 5 749.772 166.7 750.175
1674 1 31.4238 189.534 761.63
1460 1 385.938 187.119 767.586
1398 1 449.616 189.436 772.773
1172 1 746.328 204.479 765.758
850 3 109.432 217.928 762.782
1780 1 226.482 261.359 749.984
1025 1 404.878 257.538 760.587
277 3 534.719 274.564 747.591
203 3 282.659 293.68 761.496
1114 1 342.573 309.524 768.397
1773 1 212.744 327.847 757.618
315 3 603.056 338.263 768.847
996 1 296.024 364.231 772.307
1299 1 384.935 393.703 758.903
740 3 652.992 389.205 754.663
989 1 390.885 1.20725 782.493
1720 1 519.606 18.8949 787.136
1887 1 705.957 10.3238 795.252
1885 1 143.408 49.274 779.07
86 10 493.657 43.8728 794.139
85 5 498.529 52.422 795.919
760 3 49.7437 92.5686 793.569
457 3 291.902 95.5748 792.244
1630 1 58.855 153.728 781.078
1343 1 74.9039 155.311 793.659
1721 1 307.464 139.193 791.102
432 3 354.469 147.715 798.269
1664 1 572.54 146.834 798.892
902 1 43.312 168.835 798.122
1316 1 371.965 172.535 786.585
1882 1 454.139 179.317 777.743
413 3 66.2106 193.164 788.218
680 3 271.285 192.476 773.342
220 3 323.943 196.816 783.419
278 3 777.194 199.089 796.536
232 3 787.104 207.178 781.661
531 3 764.386 234.133 781.553
276 3 258.585 254.986 777.423
1021 1 47.3013 282.319 799.705
1581 1 701.179 336.968 776.182
559 3 470.141 368.006 786.724
1538 1 514.31 372.602 776.297
1180 1 218.272 400.854 21.5141
1688 1 256.799 407.201 24.415
725 3 399.148 412.369 4.31901
1713 1 525.037 419.006 13.4107
555 3 674.483 401.503 20.2513
1734 1 70.9038 453.176 24.5864
95 5 206.817 443.635 20.628
96 10 198.49 444.248 26.1318
1191 1 238.892 464.753 23.9736
765 3 426.922 471.42 18.6534
1600 1 671.623 456.759 13.6203
71 5 37.7994 517.861 15.7406
72 10 41.3687 509.124 12.4337
799 3 107.422 555.788 23.0289
390 3 231.875 537.32 25.2558
1188 1 636.056 586.451 2.87358
1353 1 13.0314 602.338 9.4497
341 3 498.642 591.408 9.1719
762 3 567.06 597.683 15.3362
1045 1 708.859 589.389 25.9464
610 3 649.061 668.313 24.505
1742 1 228.679 724.813 1.47364
1136 1 482.649 728.841 18.5318
990 1 291.278 780.629 24.342
577 3 392.233 790.697 24.0101
1782 1 241.787 407.009 52.3409
211 3 305.755 464.54 48.9149
571 3 570.107 469.57 51.4281
782 3 44.2783 481.878 44.8347
1286 1 85.4203 487.71 31.9493
1208 1 747.081 523.005 37.4474
654 3 88.8155 545.706 46.4767
1442 1 425.534 538.636 47.2752
204 3 766.914 535.341 29.1244
1835 1 596.286 585.982 35.2497
500 3 662.453 570.62 27.11
657 3 569.222 604.027 42.5469
981 1 587.826 608.397 27.9706
958 1 417.82 624.186 34.4518
1659 1 1.915 644.057 32.023
344 3 32.6354 647.621 36.3718
1090 1 106.045 640.706 29.4767
126 10 368.023 655.443 37.6556
125 5 375.06 659.892 32.1157
1302 1 381.997 661.017 42.6215
1373 1 673.141 651.48 32.7041
716 3 765.399 652.608 47.3178