LAMMPS (22 Jul 2025 - Update 3)
#######################Init Section######################
units           real
boundary p p p
atom_style      full
bond_style      harmonic
#angle_style     hybrid harmonic cosine
#read_data new_system.data extra/special/per/atom 10
read_data new_system.data extra/bond/per/atom 20 extra/special/per/atom 10
Reading data file ...
  orthogonal box = (0 0 0) to (800 800 800)
  1 by 2 by 2 MPI processor grid
  reading atoms ...
  1900 atoms
Finding 1-2 1-3 1-4 neighbors ...
  special bond factors lj:    0        0        0       
  special bond factors coul:  0        0        0       
     0 = max # of 1-2 neighbors
     0 = max # of 1-3 neighbors
     0 = max # of 1-4 neighbors
    11 = max # of special neighbors
  special bonds CPU = 0.001 seconds
  read_data CPU = 0.012 seconds
#read_restart sim.2.restart

pair_style hybrid/overlay lj/cut 30.0 morse 10.0

#HS 5,6, patch 10,11, ligand 1,2,8,9, crowder 3,4, 7 (originally CoQ9 but treating as crowder)
#HS size 10 #radius
#side size 3.5
#ligand size 1

#HS-side patch - the patch is like an active site
#for now just copying parameters from other lammps CoQ code
pair_coeff 5 10 lj/cut 0.01 13.5 13.5
pair_coeff 6 10 lj/cut 0.01 13.5 13.5
pair_coeff 5 11 lj/cut 0.01 13.5 13.5
pair_coeff 6 11 lj/cut 0.01 13.5 13.5

#Crowder-Side Patch
pair_coeff 5 3 lj/cut 0.01 13.5 13.5
pair_coeff 5 4 lj/cut 0.01 13.5 13.5
pair_coeff 6 3 lj/cut 0.01 13.5 13.5
pair_coeff 6 4 lj/cut 0.01 13.5 13.5

# Crowder–patch interactions (same style as HS–patch)
pair_coeff 3 10 lj/cut 0.01 13.5 13.5
pair_coeff 3 11 lj/cut 0.01 13.5 13.5
pair_coeff 4 10 lj/cut 0.01 13.5 13.5
pair_coeff 4 11 lj/cut 0.01 13.5 13.5

#HS-crowder
pair_coeff 5 3 lj/cut 0.01 20 20
pair_coeff 5 4 lj/cut 0.01 20 20
pair_coeff 6 3 lj/cut 0.01 20 20
pair_coeff 6 4 lj/cut 0.01 20 20

#Crowder-crowder
pair_coeff 3 3 lj/cut 0.01 20 20
pair_coeff 3 4 lj/cut 0.01 20 20
pair_coeff 4 4 lj/cut 0.01 20 20

#Crowder-ligand
pair_coeff 1 3 lj/cut 0.2 11 25
pair_coeff 1 4 lj/cut 0.2 11 25
pair_coeff 2 3 lj/cut 0.2 11 25
pair_coeff 2 4 lj/cut 0.2 11 25
pair_coeff 8 3 lj/cut 0.2 11 25
pair_coeff 8 4 lj/cut 0.2 11 25
pair_coeff 9 3 lj/cut 0.2 11 25
pair_coeff 9 4 lj/cut 0.2 11 25

#Ligand-ligand
pair_coeff 1 1 lj/cut 0.01 2 2
pair_coeff 2 2 lj/cut 0.01 2 2
pair_coeff 8 8 lj/cut 0.01 2 2
pair_coeff 9 9 lj/cut 0.01 2 2
pair_coeff 1 2 lj/cut 0.01 2 2
pair_coeff 1 8 lj/cut 0.01 2 2
pair_coeff 1 9 lj/cut 0.01 2 2
pair_coeff 2 8 lj/cut 0.01 2 2
pair_coeff 2 9 lj/cut 0.01 2 2
pair_coeff 8 9 lj/cut 0.01 2 2

#HS-HS unsure if this is relevant yet as I only have 1 enzyme that flickers
#between on and off states, but I will include it for now
pair_coeff 5 6 lj/cut 1.35 20 50
#put in some dummy parameters as done before

#HS-HS and unmeasured set at 1KT
pair_coeff 5 5 lj/cut 0.6 20 50
pair_coeff 6 6 lj/cut 0.6 20 50

#patch-ligand cognate use 4KT
pair_coeff 10 1 morse 2.5 1.5 5.5 8.3
pair_coeff 11 2 morse 2.5 1.5 5.5 8.3

#patch-ligand non-cognate use 2KT 0kT for final product and all patches
pair_coeff 10 2 lj/cut 1.2 4.5 11.5
pair_coeff 10 8 lj/cut 1.2 4.5 11.5
pair_coeff 10 9 lj/cut 0.01 4.5 4.5
pair_coeff 11 1 lj/cut 1.2 4.5 11.5
pair_coeff 11 8 lj/cut 1.2 4.5 11.5
pair_coeff 11 9 lj/cut 0.01 4.5 4.5

#Patch-patch
pair_coeff 10 10 lj/cut 0.01 7 7
pair_coeff 11 11 lj/cut 0.01 7 7
pair_coeff 10 11 lj/cut 0.01 7 7

#HS-Ligand 0kT for final product and all enzymes
pair_coeff 5 9 lj/cut 0.01 11 11
pair_coeff 6 9 lj/cut 0.01 11 11
pair_coeff 5 1 lj/cut 1.2 11 27.5
pair_coeff 5 2 lj/cut 1.2 11 27.5
pair_coeff 5 8 lj/cut 1.2 11 27.5
pair_coeff 6 1 lj/cut 1.2 11 27.5
pair_coeff 6 2 lj/cut 1.2 11 27.5
pair_coeff 6 8 lj/cut 1.2 11 27.5

#ignoring PPI as we're going between bound and unbound enzyme, and really just 1 enzyme to care about
#CoQ-HS (starting from here) - skipping this section because i don't think i need it?
# COQ9 (type 7) treated like a crowder

# COQ9–COQ9 and COQ9–crowder
pair_coeff 7 7 lj/cut 0.01 20 20
pair_coeff 3 7 lj/cut 0.01 20 20
pair_coeff 4 7 lj/cut 0.01 20 20

# HS–COQ9 (copy HS–crowder)
pair_coeff 5 7 lj/cut 0.01 20 20
pair_coeff 6 7 lj/cut 0.01 20 20

# Ligand–COQ9 (copy crowder–ligand)
pair_coeff 1 7 lj/cut 0.2 11 25
pair_coeff 2 7 lj/cut 0.2 11 25
pair_coeff 8 7 lj/cut 0.2 11 25
pair_coeff 9 7 lj/cut 0.2 11 25

# Patch–COQ9 (copy patch–crowder)
pair_coeff 7 10 lj/cut 0.01 13.5 13.5
pair_coeff 7 11 lj/cut 0.01 13.5 13.5

#patch-ligand k_off
bond_coeff * 0.6 5.3
special_bonds lj 0 0.2 0.5 angle no
Finding 1-2 1-3 1-4 neighbors ...
  special bond factors lj:    0        0.2      0.5     
  special bond factors coul:  0        0        0       
     0 = max # of 1-2 neighbors
     0 = max # of 1-3 neighbors
     0 = max # of 1-4 neighbors
    11 = max # of special neighbors
  special bonds CPU = 0.000 seconds
compute 1 all temp
thermo          10000
#Output thermodynamic information every 10,000 steps.

group enz type 5 6 10 11 #apparently should include patch in enz group
200 atoms in group enz
group crwd type 3 4
700 atoms in group crwd
group reactgrp type 10 11 1 2 8 9
1100 atoms in group reactgrp
group lig type 1 2 8 9
1000 atoms in group lig
group crwdlig type 1 2 8 9 3 4
1700 atoms in group crwdlig

#random seed
variable a equal 233

# rigid body constraint
fix fxrig enz rigid/nve molecule langevin 310 310 2000 $a
fix fxrig enz rigid/nve molecule langevin 310 310 2000 233
  100 rigid bodies with 200 atoms
fix fxlan crwd langevin 310.0 310.0 2000 $a
fix fxlan crwd langevin 310.0 310.0 2000 233
fix fxlan1 lig langevin 310.0 310.0 80 $a
fix fxlan1 lig langevin 310.0 310.0 80 233
fix fxnve crwdlig nve
timestep 25

dump equi all dcd 500 preequi.$a.dcd
dump equi all dcd 500 preequi.233.dcd
dump_modify equi unwrap yes

#short equilibrium run
run   20000 #we'll see if this is too short, can try 1000 and 100,000
Generated 0 of 55 mixed pair_coeff terms from geometric mixing rule
Neighbor list info ...
  update: every = 1 steps, delay = 0 steps, check = yes
  max neighbors/atom: 2000, page size: 100000
  master list distance cutoff = 52
  ghost atom cutoff = 52
  binsize = 26, bins = 31 31 31
  3 neighbor lists, perpetual/occasional/extra = 3 0 0
  (1) pair lj/cut, perpetual, skip from (3)
      attributes: half, newton on
      pair build: skip
      stencil: none
      bin: none
  (2) pair morse, perpetual, skip from (3)
      attributes: half, newton on
      pair build: skip
      stencil: none
      bin: none
  (3) neighbor class addition, perpetual
      attributes: half, newton on
      pair build: half/bin/newton
      stencil: half/bin/3d
      bin: standard
Per MPI rank memory allocation (min/avg/max) = 11.75 | 11.75 | 11.75 Mbytes
   Step          Temp          E_pair         E_mol          TotEng         Press     
         0   0              116.98524      0              116.98524      0.0052968352 
     10000   310.53126      112.86395      0              1839.7898      14.034828    
     20000   315.45117      111.73145      0              1866.0178     -4.8251209    
Loop time of 2.61499 on 4 procs for 20000 steps with 1900 atoms

Performance: 16520.145 ns/day, 0.001 hours/ns, 7648.215 timesteps/s, 14.532 Matom-step/s
97.2% CPU use with 4 MPI tasks x no OpenMP threads

MPI task timing breakdown:
Section |  min time  |  avg time  |  max time  |%varavg| %total
---------------------------------------------------------------
Pair    | 0.086486   | 0.091805   | 0.095602   |   1.2 |  3.51
Bond    | 0.0014155  | 0.001461   | 0.0015671  |   0.2 |  0.06
Neigh   | 0.10857    | 0.10901    | 0.10954    |   0.1 |  4.17
Comm    | 0.33517    | 0.33888    | 0.34254    |   0.5 | 12.96
Output  | 0.0032492  | 0.0039377  | 0.0054913  |   1.4 |  0.15
Modify  | 1.8871     | 1.8916     | 1.8984     |   0.3 | 72.34
Other   |            | 0.1783     |            |       |  6.82

Nlocal:            475 ave         493 max         459 min
Histogram: 1 0 1 0 0 0 1 0 0 1
Nghost:          371.5 ave         418 max         353 min
Histogram: 3 0 0 0 0 0 0 0 0 1
Neighs:              0 ave           0 max           0 min
Histogram: 4 0 0 0 0 0 0 0 0 0

Total # of neighbors = 0
Ave neighs/atom = 0
Ave special neighs/atom = 0
Neighbor list builds = 613
Dangerous builds = 0

undump equi
unfix fxrig
unfix fxlan
unfix fxlan1
unfix fxnve

############################Langevin Dynamics###############################

fix fxrig enz rigid/nve molecule langevin 310 310 2000 $a
fix fxrig enz rigid/nve molecule langevin 310 310 2000 233
  100 rigid bodies with 200 atoms
fix fxlan crwd langevin 310.0 310.0 2000 $a
fix fxlan crwd langevin 310.0 310.0 2000 233
fix fxlan1 lig langevin 310.0 310.0 80 $a
fix fxlan1 lig langevin 310.0 310.0 80 233
fix fxnve crwdlig nve
timestep 25

#bond/create/random written by Pierre de Buyl https://github.com/pdebuyl/lammps/tree/fbc_random/src/MC
#fix ID group bond/create/random Nevery itype jtype rcut new_bond_type \prob P seed iparam 1 iatomtype jparam 1 jatomtype
#it is non-trivial to do Pierre de Buyl because his is old and lammps you need for react is new

#5+1 -> 6-8
#fix bondc0  reactgrp bond/create/random 10 10 1 5.5 1 prob 0.00001 $a iparam 1 11 jparam 1 8
#fix bondc0 reactgrp bond/create 10 11 1 5.5 1 iparam 1 11 jparam 1 8
#6-8 + 2 --> 3-5-9 (8->9, 2->3, 6->5 aka patch 11->10)
molecule preTriad preTriad.txt
Read molecule template preTriad:
preTriad
  1 molecules
  0 fragments
  0 bodies
  3 atoms with max type 8
  1 bonds with max type 1
  0 angles with max type 0
  0 dihedrals with max type 0
  0 impropers with max type 0
molecule postTriad postTriad.txt
Read molecule template postTriad:
postTriad
  1 molecules
  0 fragments
  0 bodies
  3 atoms with max type 9
  0 bonds with max type 0
  0 angles with max type 0
  0 dihedrals with max type 0
  0 impropers with max type 0
#the reversible enzyme-substrate complex
molecule preComp1 preComp1.txt
Read molecule template preComp1:
preComp1
  1 molecules
  0 fragments
  0 bodies
  2 atoms with max type 11
  1 bonds with max type 1
  0 angles with max type 0
  0 dihedrals with max type 0
  0 impropers with max type 0
molecule postComp1 postComp1.txt
Read molecule template postComp1:
postComp1
  1 molecules
  0 fragments
  0 bodies
  2 atoms with max type 10
  0 bonds with max type 0
  0 angles with max type 0
  0 dihedrals with max type 0
  0 impropers with max type 0
#code that disassociates first enzyme-substrate complex (folP-DHPP 6-8 -> 5+1)
fix bondc1 reactgrp bond/react     react comp1_rxn reactgrp 10 0.0 5.5 preComp1 postComp1 comp1.map     react triad_rxn reactgrp 10 0.0 5.5 preTriad postTriad triad.map  # turns 2+6-8 -> 3+5+9
dynamic group bond_react_MASTER_group defined
# tell bond/react how long to keep highlight spheres (in timesteps)
#fix bondb0 reactgrp bond/break 10 1 5.5

#fix_modify bondc1 fcolor yellow ftrans 0.5

#dump file for channeling analysis
compute flux reactgrp property/local btype batom1 batom2
dump bondinfo reactgrp local 100 bond_data.txt c_flux[1] c_flux[2] c_flux[3]

# unsure if adding break code here

#dump file for product yield
variable tstep equal step
thermo_style custom step ebond etotal temp f_bondc1[2]
timestep 25

restart 100000 sim1.1.restart sim1.2.restart #change parameter

#dump file for trajectory
dump dyn all dcd 20000 equi1.$a.dcd
dump dyn all dcd 20000 equi1.233.dcd
dump_modify dyn unwrap yes

#another dump file for channeling analysis
dump dyn2 all custom 20000 atomtype.$a.dump id type x y z
dump dyn2 all custom 20000 atomtype.233.dump id type x y z

# ---------- short visualization test run ----------

variable ndump index 10

# minimal, known‑good syntax: no extra keywords
dump viz all image ${ndump} movie.*.png type type size 600 600      center s 0.5 0.5 0.5 view 70 -10 zoom 4.0
dump viz all image 10 movie.*.png type type size 600 600      center s 0.5 0.5 0.5 view 70 -10 zoom 4.0
dump_modify viz backcolor white pad 4

run 2000

CITE-CITE-CITE-CITE-CITE-CITE-CITE-CITE-CITE-CITE-CITE-CITE-CITE

Your simulation uses code contributions which should be cited:

- fix bond/react: reacter.org doi:10.1016/j.polymer.2017.09.038, doi:10.1021/acs.macromol.0c02012, doi:10.1016/j.cpc.2024.109287

@Article{Gissinger17,
 author = {J. R. Gissinger and B. D. Jensen and K. E. Wise},
 title = {Modeling Chemical Reactions in Classical Molecular Dynamics Simulations},
 journal = {Polymer},
 year =    2017,
 volume =  128,
 pages =   {211--217}
}

@Article{Gissinger20,
 author = {J. R. Gissinger, B. D. Jensen, K. E. Wise},
 title = {{REACTER}: A Heuristic Method for Reactive Molecular Dynamics},
 journal = {Macromolecules},
 year =    2020,
 volume =  53,
 number =  22,
 pages =   {9953--9961}
}

@Article{Gissinger24,
 author = {J. R. Gissinger, B. D. Jensen, K. E. Wise},
 title = {Molecular Modeling of Reactive Systems with REACTER},
 journal = {Computer Physics Communications},
 year =    2024,
 volume =  304,
 number =  109287
}

CITE-CITE-CITE-CITE-CITE-CITE-CITE-CITE-CITE-CITE-CITE-CITE-CITE

Generated 0 of 55 mixed pair_coeff terms from geometric mixing rule
Neighbor list info ...
  update: every = 1 steps, delay = 0 steps, check = yes
  max neighbors/atom: 2000, page size: 100000
  master list distance cutoff = 52
  ghost atom cutoff = 52
  binsize = 26, bins = 31 31 31
  4 neighbor lists, perpetual/occasional/extra = 3 1 0
  (1) pair lj/cut, perpetual, skip from (4)
      attributes: half, newton on
      pair build: skip
      stencil: none
      bin: none
  (2) pair morse, perpetual, skip from (4)
      attributes: half, newton on
      pair build: skip
      stencil: none
      bin: none
  (3) fix bond/react, occasional, copy from (4)
      attributes: half, newton on
      pair build: copy
      stencil: none
      bin: none
  (4) neighbor class addition, perpetual
      attributes: half, newton on
      pair build: half/bin/newton
      stencil: half/bin/3d
      bin: standard
Per MPI rank memory allocation (min/avg/max) = 12.07 | 12.07 | 12.08 Mbytes
   Step         E_bond         TotEng          Temp       f_bondc1[2]  
     20000   0              1866.0178      315.45117      0            
     22000   0              1896.907       321.23175      0            
Loop time of 5.09436 on 4 procs for 2000 steps with 1900 atoms

Performance: 847.996 ns/day, 0.028 hours/ns, 392.591 timesteps/s, 745.922 katom-step/s
87.6% CPU use with 4 MPI tasks x no OpenMP threads

MPI task timing breakdown:
Section |  min time  |  avg time  |  max time  |%varavg| %total
---------------------------------------------------------------
Pair    | 0.01298    | 0.015421   | 0.020628   |   2.5 |  0.30
Bond    | 0.00026443 | 0.00028249 | 0.00029319 |   0.0 |  0.01
Neigh   | 0.012966   | 0.013124   | 0.013275   |   0.1 |  0.26
Comm    | 0.11651    | 0.12482    | 0.13024    |   1.6 |  2.45
Output  | 0.75082    | 1.7445     | 4.2846     | 111.8 | 34.24
Modify  | 0.55817    | 3.1149     | 4.126      |  84.3 | 61.14
Other   |            | 0.08127    |            |       |  1.60

Nlocal:            475 ave         494 max         458 min
Histogram: 1 0 1 0 0 0 1 0 0 1
Nghost:         376.25 ave         424 max         353 min
Histogram: 1 2 0 0 0 0 0 0 0 1
Neighs:          59.75 ave          72 max          44 min
Histogram: 1 0 1 0 0 0 0 0 0 2

Total # of neighbors = 239
Ave neighs/atom = 0.12578947
Ave special neighs/atom = 0
Neighbor list builds = 62
Dangerous builds = 0
undump viz
# ---------- end short visualization test ----------

#fix rukja all halt 10000 v_netbond >= 700
run   20000 #change parameter
Generated 0 of 55 mixed pair_coeff terms from geometric mixing rule
Per MPI rank memory allocation (min/avg/max) = 14.32 | 14.32 | 14.32 Mbytes
   Step         E_bond         TotEng          Temp       f_bondc1[2]  
     22000   0              1896.907       321.23175      0            
     30000   0              1865.1642      315.49616      0            
     40000   0              1884.5584      319.99935      0            
     42000   0              1797.8282      303.68419      0            
Loop time of 3.91401 on 4 procs for 20000 steps with 1900 atoms

Performance: 11037.278 ns/day, 0.002 hours/ns, 5109.851 timesteps/s, 9.709 Matom-step/s
94.0% CPU use with 4 MPI tasks x no OpenMP threads

MPI task timing breakdown:
Section |  min time  |  avg time  |  max time  |%varavg| %total
---------------------------------------------------------------
Pair    | 0.092519   | 0.097708   | 0.10291    |   1.3 |  2.50
Bond    | 0.0015777  | 0.001639   | 0.0017539  |   0.2 |  0.04
Neigh   | 0.11384    | 0.1163     | 0.11896    |   0.6 |  2.97
Comm    | 0.36871    | 0.37744    | 0.38328    |   0.9 |  9.64
Output  | 0.0053726  | 0.0067685  | 0.010044   |   2.3 |  0.17
Modify  | 3.1918     | 3.1955     | 3.1979     |   0.1 | 81.64
Other   |            | 0.1187     |            |       |  3.03

Nlocal:            475 ave         494 max         462 min
Histogram: 1 1 0 0 0 1 0 0 0 1
Nghost:         374.75 ave         424 max         351 min
Histogram: 1 2 0 0 0 0 0 0 0 1
Neighs:           64.5 ave          81 max          50 min
Histogram: 1 1 0 0 0 0 0 1 0 1

Total # of neighbors = 258
Ave neighs/atom = 0.13578947
Ave special neighs/atom = 0
Neighbor list builds = 614
Dangerous builds = 0

undump dyn
undump dyn2
undump bondinfo
unfix fxrig
unfix fxlan
unfix fxlan1
unfix fxnve
clear


Total wall time: 0:00:11
