ITEM: TIMESTEP
20000
ITEM: NUMBER OF ATOMS
1900
ITEM: BOX BOUNDS pp pp pp
0.0000000000000000e+00 8.0000000000000000e+02
0.0000000000000000e+00 8.0000000000000000e+02
0.0000000000000000e+00 8.0000000000000000e+02
ITEM: ATOMS id type mol x y z ix iy iz
1 5 1 117.572 16.7677 166.392 0 0 0
2 10 1 121.876 13.4335 158.003 0 0 0
3 5 2 358.745 712.273 777.791 0 0 0
4 10 2 354.551 705.427 771.829 0 0 0
5 5 3 636.284 211.112 475.926 0 0 0
6 10 3 645.958 208.716 475.101 0 0 0
7 5 4 502.947 596.792 330.367 0 0 0
8 10 4 503.328 598.173 320.47 0 0 0
9 5 5 99.593 586.984 344.763 0 0 0
10 10 5 103.848 585.249 335.881 0 0 0
11 5 6 639.305 792.322 393.418 0 0 0
12 10 6 642.32 790.164 402.706 0 0 0
13 5 7 264.143 234.405 717.013 0 0 0
14 10 7 272.46 232.991 722.382 0 0 0
15 5 8 539.157 393.71 550.896 0 0 0
16 10 8 545.324 389.387 557.474 0 0 0
17 5 9 614.118 226.807 562.241 0 0 0
18 10 9 613.756 232.898 554.319 0 0 0
19 5 10 126.319 684.525 334.311 0 0 0
20 10 10 127.189 682.334 344.029 0 0 0
21 5 11 46.7136 776.181 305.428 0 0 0
22 10 11 54.9944 780.241 301.562 0 0 0
23 5 12 789.191 185.57 178.289 0 0 0
24 10 12 796.583 192.165 179.653 0 0 0
25 5 13 734.471 150.739 725.298 0 0 0
26 10 13 733.75 159.705 720.929 0 0 0
27 5 14 385.463 599.62 39.4713 0 0 0
28 10 14 391.83 607.008 41.681 0 0 0
29 5 15 493.282 245.296 305.44 0 0 0
30 10 15 500.778 241.236 310.666 0 0 0
31 5 16 476.065 86.0871 261.065 0 0 0
32 10 16 474.752 77.2045 256.663 0 0 0
33 5 17 792.08 553.581 192.296 0 0 0
34 10 17 798.659 547.525 196.772 0 0 0
35 5 18 398.176 106.267 611.455 0 0 0
36 10 18 388.758 103.906 609.062 0 0 0
37 5 19 656.927 17.8973 770.039 0 0 0
38 10 19 661.455 18.6707 761.157 0 0 0
39 5 20 796.152 128.041 82.4577 0 0 0
40 10 20 0.918045 119.858 79.243 1 0 0
41 5 21 201.406 645.422 61.1892 0 0 0
42 10 21 194.737 652.368 63.8837 0 0 0
43 5 22 22.6767 457.586 151.804 0 0 0
44 10 22 29.1309 451.678 146.963 0 0 0
45 5 23 547.601 791.563 732.559 0 0 0
46 10 23 552.72 792.818 724.061 0 0 0
47 5 24 568.845 761.942 691.594 0 0 0
48 10 24 559.233 760.633 689.166 0 0 0
49 5 25 310.922 326.067 332.304 0 0 0
50 10 25 312.918 331.116 323.906 0 0 0
51 5 26 386.796 32.6431 423.49 0 0 0
52 10 26 381.998 41.3691 424.403 0 0 0
53 5 27 399.443 194.69 58.7253 0 0 0
54 10 27 390.344 198.433 60.5122 0 0 0
55 5 28 755.459 423.502 799.816 0 0 -1
56 10 28 762.25 420.346 6.44284 0 0 0
57 5 29 495.851 756.178 458.334 0 0 0
58 10 29 485.924 756.371 459.522 0 0 0
59 5 30 616.027 10.597 283.374 0 0 0
60 10 30 617.504 20.4203 284.523 0 0 0
61 5 31 376.648 165.953 273.292 0 0 0
62 10 31 375.03 175.227 269.918 0 0 0
63 5 32 724.172 90.4555 769.996 0 0 0
64 10 32 726.029 87.8873 760.512 0 0 0
65 5 33 408.333 568.279 382.421 0 0 0
66 10 33 406.36 561.992 374.899 0 0 0
67 5 34 665.436 372.554 750.475 0 0 0
68 10 34 659.913 367.901 743.559 0 0 0
69 5 35 18.976 264.97 563.139 0 0 0
70 10 35 21.4818 272.357 556.881 0 0 0
71 5 36 201.666 629.295 662.098 0 0 0
72 10 36 208.576 622.846 658.835 0 0 0
73 5 37 245.705 483.567 559.536 0 0 0
74 10 37 238.428 490.375 560.368 0 0 0
75 5 38 731.927 776.071 766.296 0 0 0
76 10 38 732.335 772.464 775.614 0 0 0
77 5 39 418.707 267.695 280.246 0 0 0
78 10 39 418.108 266.829 270.301 0 0 0
79 5 40 221.213 538.958 376.41 0 0 0
80 10 40 220.519 543.135 367.351 0 0 0
81 5 41 260.718 711.465 763.001 0 0 0
82 10 41 252.451 708.799 758.048 0 0 0
83 5 42 124.628 493.555 411.502 0 0 0
84 10 42 128.18 486.847 418.011 0 0 0
85 5 43 710.599 683.383 446.332 0 0 0
86 10 43 701.968 687.502 449.253 0 0 0
87 5 44 241.09 606.703 406.775 0 0 0
88 10 44 234.145 611.55 412.092 0 0 0
89 5 45 17.9236 402.044 7.57972 0 0 0
90 10 45 18.331 392.245 5.62898 0 0 0
91 5 46 487.062 23.4472 472.102 0 0 0
92 10 46 491.879 32.171 471.272 0 0 0
93 5 47 263.974 734.408 239.704 0 0 0
94 10 47 257.997 739.785 233.757 0 0 0
95 5 48 483.052 10.3254 300.829 0 0 0
96 10 48 482.447 16.963 293.374 0 0 0
97 5 49 351.052 540.771 28.8935 0 0 0
98 10 49 360.556 539.299 26.1545 0 0 0
99 5 50 418.46 636.107 9.03124 0 0 0
100 10 50 417.61 641.667 0.763384 0 0 0
101 5 51 388.337 330.74 797.796 0 0 -1
102 10 51 386.735 326.083 789.093 0 0 -1
103 5 52 134.747 159.074 742.286 0 0 0
104 10 52 138.529 149.829 742.765 0 0 0
105 5 53 428.143 190.91 304.217 0 0 0
106 10 53 428.968 180.965 303.574 0 0 0
107 5 54 117.961 169.708 619.155 0 0 0
108 10 54 123.438 171.941 611.092 0 0 0
109 5 55 567.627 474.584 773.616 0 0 0
110 10 55 559.09 469.4 774.109 0 0 0
111 5 56 41.4794 111.3 483.992 0 0 0
112 10 56 33.1624 112.529 489.407 0 0 0
113 5 57 607.955 10.3583 526.361 0 0 0
114 10 57 610.989 18.712 521.777 0 0 0
115 5 58 120.377 71.2608 746.243 0 0 0
116 10 58 129.537 72.8788 742.571 0 0 0
117 5 59 220.641 778.153 791.357 0 0 0
118 10 59 218.485 779.553 1.02101 0 0 1
119 5 60 290.718 423.1 514.682 0 0 0
120 10 60 283.799 416.898 518.378 0 0 0
121 5 61 295.579 45.2396 124.338 0 0 0
122 10 61 287.254 39.8262 123.161 0 0 0
123 5 62 783.074 670.576 192.862 0 0 0
124 10 62 774.47 675.479 194.258 0 0 0
125 5 63 367.676 204.406 788.046 0 0 0
126 10 63 375.365 198.11 786.934 0 0 0
127 5 64 280.534 732.816 172.386 0 0 0
128 10 64 283.233 727.884 180.656 0 0 0
129 5 65 683.073 345.35 786.034 0 0 0
130 10 65 681.692 349.46 795.045 0 0 0
131 5 66 327.002 199.417 303.112 0 0 0
132 10 66 327.851 200.453 313.022 0 0 0
133 5 67 228.84 46.1359 772.739 0 0 0
134 10 67 237.998 47.9141 769.137 0 0 0
135 5 68 254.214 239.428 666.176 0 0 0
136 10 68 248.393 231.389 664.954 0 0 0
137 5 69 287.901 1.15928 412.67 0 0 0
138 10 69 281.393 1.36352 420.259 0 0 0
139 5 70 295.696 301.896 731.052 0 0 0
140 10 70 290.072 294.532 734.812 0 0 0
141 5 71 192.103 590.053 608.492 0 0 0
142 10 71 190.475 583.823 616.143 0 0 0
143 5 72 614.509 641.574 502.301 0 0 0
144 10 72 617.496 651.116 502.148 0 0 0
145 5 73 550.341 332.843 775.28 0 0 0
146 10 73 542.583 334.748 781.296 0 0 0
147 5 74 506.952 701.51 310.506 0 0 0
148 10 74 499.187 707.483 312.512 0 0 0
149 5 75 45.6978 729.619 645.338 0 0 0
150 10 75 53.2282 730.931 651.786 0 0 0
151 5 76 721.699 161.387 446.026 0 0 0
152 10 76 729.654 167.414 445.394 0 0 0
153 5 77 183.227 580.306 86.0753 0 0 0
154 10 77 187.18 571.602 89.0085 0 0 0
155 5 78 723.205 116.568 320.051 0 0 0
156 10 78 716.281 117.44 327.214 0 0 0
157 5 79 669.869 677.705 495.059 0 0 0
158 10 79 665.643 684.772 500.734 0 0 0
159 5 80 363.09 367.273 111.691 0 0 0
160 10 80 370.385 361.778 115.762 0 0 0
161 5 81 677.019 460.346 770.285 0 0 0
162 10 81 682.987 468.304 769.257 0 0 0
163 5 82 81.0427 25.952 95.3964 0 0 0
164 10 82 73.6598 19.8744 98.3215 0 0 0
165 5 83 345.515 333.618 481.375 0 0 0
166 10 83 348.899 342.894 479.791 0 0 0
167 5 84 612.355 392.353 685.212 0 0 0
168 10 84 621.149 395.481 681.623 0 0 0
169 5 85 386.132 590.678 466.671 0 0 0
170 10 85 379.07 583.795 468.33 0 0 0
171 5 86 406.847 248.672 629.964 0 0 0
172 10 86 405.864 240.939 636.227 0 0 0
173 5 87 646.64 573.383 628.714 0 0 0
174 10 87 641.926 564.692 630.217 0 0 0
175 5 88 495.143 305.163 634.766 0 0 0
176 10 88 495.596 311.003 642.871 0 0 0
177 5 89 267.551 288.632 392.529 0 0 0
178 10 89 264.387 292.7 383.959 0 0 0
179 5 90 660.582 543.118 748.89 0 0 0
180 10 90 662.742 536.791 756.327 0 0 0
181 5 91 340.277 404.956 168.223 0 0 0
182 10 91 346.306 397.003 167.59 0 0 0
183 5 92 736.057 608.886 277.019 0 0 0
184 10 92 726.84 605.357 275.411 0 0 0
185 5 93 698.468 367.547 659.201 0 0 0
186 10 93 691.623 363.72 665.406 0 0 0
187 5 94 535.129 632.061 373.022 0 0 0
188 10 94 529.123 640.056 373.118 0 0 0
189 5 95 565.351 11.0667 595.821 0 0 0
190 10 95 573.22 14.9059 600.653 0 0 0
191 5 96 209.967 385.026 491.206 0 0 0
192 10 96 208.088 381.421 500.342 0 0 0
193 5 97 427.729 384.015 457.187 0 0 0
194 10 97 424.594 386.849 466.25 0 0 0
195 5 98 10.0727 647.728 527.254 0 0 0
196 10 98 4.69992 639.518 529.187 0 0 0
197 5 99 182.459 510.96 323.603 0 0 0
198 10 99 183.99 518.968 329.393 0 0 0
199 5 100 214.156 454.283 514.665 0 0 0
200 10 100 223.626 451.181 513.831 0 0 0
201 3 101 488.215 402.704 172.05 0 0 0
202 3 102 716.999 160.287 30.7322 0 0 0
203 3 103 22.665 171.281 555.316 0 0 0
204 3 104 513.937 171.003 795.741 0 0 0
205 3 105 504.697 478.039 574.112 0 0 0
206 3 106 156.981 49.3318 221.636 0 0 0
207 3 107 591.569 431.828 353.585 0 0 0
208 3 108 483.909 291.442 561.569 0 0 0
209 3 109 371.924 261.727 776.093 0 0 0
210 3 110 497.631 400.932 711.2 0 0 0
211 3 111 368.916 159.908 707.219 0 0 0
212 3 112 574.371 193.185 624.148 0 0 0
213 3 113 61.4894 320.295 180.624 0 0 0
214 3 114 364.724 541.34 413.257 0 0 0
215 3 115 49.2505 772.502 416.684 0 0 0
216 3 116 729.015 210.242 741.887 0 0 0
217 3 117 582.552 674.563 413.662 0 0 0
218 3 118 721.191 679.198 626.761 0 0 0
219 3 119 481.14 499.302 685.206 0 0 0
220 3 120 394.371 394.948 425.909 0 0 0
221 3 121 149.63 548.8 594.204 0 0 0
222 3 122 423.188 705.785 10.6528 0 0 0
223 3 123 462.729 387.938 580.834 0 0 0
224 3 124 23.7948 291.166 91.2935 0 0 0
225 3 125 759.519 360.715 22.2241 0 0 0
226 3 126 431.339 616.534 547.751 0 0 0
227 3 127 413.686 568.359 719.254 0 0 0
228 3 128 584.256 279.094 244.694 0 0 0
229 3 129 751.262 233.344 351.932 0 0 0
230 3 130 625.087 791.811 367.51 0 0 0
231 3 131 28.1008 27.3884 648.015 0 0 0
232 3 132 447.513 43.7276 493.195 0 0 0
233 3 133 612.098 534.101 612.082 0 0 0
234 3 134 70.0095 496.299 265.991 0 0 0
235 3 135 661.853 100.297 238.59 0 0 0
236 3 136 318.933 449.773 157.684 0 0 0
237 3 137 660.857 657.012 187.921 0 0 0
238 3 138 158.66 453.422 388.348 0 0 0
239 3 139 71.9836 734.104 426.954 0 0 0
240 3 140 689.192 497.329 62.4348 0 0 0
241 3 141 379.594 153.738 648.193 0 0 0
242 3 142 784.189 75.3134 541.766 0 0 0
243 3 143 353.798 443.464 92.8887 0 0 0
244 3 144 263.496 39.9267 298.705 0 0 0
245 3 145 492.715 726.015 148.722 0 0 0
246 3 146 540.732 242.417 452.626 0 0 0
247 3 147 625.443 209.913 496.383 0 0 0
248 3 148 612.692 784.593 146.698 0 0 0
249 3 149 60.6005 396.665 465.729 0 0 0
250 3 150 455.83 141.996 573.676 0 0 0
251 3 151 184.474 518.351 777.946 0 0 0
252 3 152 227.835 214.988 603.185 0 0 0
253 3 153 745.948 694.805 624.815 0 0 0
254 3 154 311.586 289.862 37.7508 0 0 0
255 3 155 6.63528 350.501 456.227 1 0 0
256 3 156 89.4569 700.43 265.635 0 0 0
257 3 157 50.1335 729.982 289.508 0 0 0
258 3 158 545.21 141.077 207.966 0 0 0
259 3 159 321.462 675.586 424.527 0 0 0
260 3 160 193.979 482.794 363.264 0 0 0
261 3 161 629.38 576.545 577.183 0 0 0
262 3 162 146.606 693.878 112.675 0 0 0
263 3 163 637.313 143.605 527.465 0 0 0
264 3 164 749.737 477.343 45.5554 0 0 0
265 3 165 316.325 724.614 620.406 0 0 0
266 3 166 566.768 467.935 101.93 0 0 0
267 3 167 324.397 103.321 4.62605 0 0 0
268 3 168 729.522 559.281 613.841 0 0 0
269 3 169 429.236 733.851 628.965 0 0 0
270 3 170 111.89 605.913 294.213 0 0 0
271 3 171 515.501 97.3593 690.352 0 0 0
272 3 172 698.466 205.72 54.4362 0 0 0
273 3 173 153.381 340.274 216.82 0 0 0
274 3 174 209.559 581.424 324.041 0 0 0
275 3 175 454.859 290.537 673.163 0 0 0
276 3 176 237.673 704.324 263.058 0 0 0
277 3 177 782.793 530.483 512.03 0 0 0
278 3 178 654.373 8.76028 409.277 0 0 0
279 3 179 412.044 205.431 413.158 0 0 0
280 3 180 191.882 263.266 264.253 0 0 0
281 3 181 356.567 526.449 681.795 0 0 0
282 3 182 480.513 791.968 369.334 0 0 0
283 3 183 420.135 792.552 293.47 0 0 0
284 3 184 732.259 295.697 8.09342 0 0 0
285 3 185 294.118 660.629 645.893 0 0 0
286 3 186 499.567 526.832 330.926 0 0 0
287 3 187 665.48 697.417 448.155 0 0 0
288 3 188 505.823 384.401 224.243 0 0 0
289 3 189 329.516 333.612 606.072 0 0 0
290 3 190 675.06 258.969 533.336 0 0 0
291 3 191 293.217 131.972 541.113 0 0 0
292 3 192 617.089 82.6299 53.3618 0 0 0
293 3 193 166.441 102.556 795.712 0 0 0
294 3 194 182.185 429.905 423.667 0 0 0
295 3 195 73.4311 397.755 329.965 0 0 0
296 3 196 196.244 162.787 400.723 0 0 0
297 3 197 124.025 350.677 15.7431 0 0 0
298 3 198 20.0465 470.067 75.123 0 0 0
299 3 199 688.626 247.464 126.136 0 0 0
300 3 200 382.959 143.96 341.278 0 0 0
301 3 201 769.98 207.429 352.313 0 0 0
302 3 202 233.793 391.615 50.1799 0 0 0
303 3 203 72.9764 656.246 227.272 0 0 0
304 3 204 22.2592 562.152 87.4147 0 0 0
305 3 205 553.454 798.701 134.239 0 -1 0
306 3 206 527.917 54.0191 517.805 0 0 0
307 3 207 260.509 591.328 359.463 0 0 0
308 3 208 97.002 438.126 448.423 0 0 0
309 3 209 679.615 652.115 335.699 0 0 0
310 3 210 376.906 93.7584 501.301 0 0 0
311 3 211 610.013 431.024 375.39 0 0 0
312 3 212 237.38 253.495 384.999 0 0 0
313 3 213 29.1889 793.939 786.534 0 0 0
314 3 214 242.197 725.959 443.891 0 0 0
315 3 215 540.376 731.108 24.8469 0 0 0
316 3 216 625.843 271.897 2.38147 0 0 0
317 3 217 220.213 481.755 531.178 0 0 0
318 3 218 666.575 46.5579 327.11 0 0 0
319 3 219 253.517 366.337 621.912 0 0 0
320 3 220 360.463 634.533 54.1708 0 0 0
321 3 221 345.408 204.043 137.456 0 0 0
322 3 222 132.6 583.688 243.404 0 0 0
323 3 223 11.4811 627.933 793.468 0 0 0
324 3 224 790.741 602.208 389.269 0 0 0
325 3 225 655.203 140.61 774.47 0 0 0
326 3 226 145.353 173.019 607.227 0 0 0
327 3 227 26.4478 527.652 784.939 0 0 0
328 3 228 299.781 263.354 613.541 0 0 0
329 3 229 425.552 247.56 13.6077 0 0 0
330 3 230 79.4732 674.931 29.5283 0 0 0
331 3 231 773.428 40.2793 511.078 0 0 0
332 3 232 226.544 789.769 189.951 0 0 0
333 3 233 80.5531 292.344 787.724 0 0 0
334 3 234 572.251 742.998 693.855 0 0 0
335 3 235 41.3479 137.961 61.0423 0 0 0
336 3 236 730.137 513.869 276.612 0 0 0
337 3 237 46.3712 233.959 646.823 0 0 0
338 3 238 461.984 137.066 37.3246 0 0 0
339 3 239 469.136 583.713 115.465 0 0 0
340 3 240 672.998 193.428 783.879 0 0 0
341 3 241 636.898 354.875 675.802 0 0 0
342 3 242 254.495 330.299 695.845 0 0 0
343 3 243 56.5367 661.345 398.075 0 0 0
344 3 244 608.537 301.046 365.654 0 0 0
345 3 245 510.799 711.315 557.963 0 0 0
346 3 246 757.9 31.4308 242.735 0 0 0
347 3 247 622.818 556.945 170.825 0 0 0
348 3 248 647.469 790.062 428.605 0 0 0
349 3 249 54.5869 716.892 708.811 0 0 0
350 3 250 374.021 255.432 243.392 0 0 0
351 3 251 24.4331 245.098 343.449 0 0 0
352 3 252 761.557 336.04 722.5 0 0 0
353 3 253 86.9472 742.653 661.349 0 0 0
354 3 254 525.617 18.2285 175.675 0 0 0
355 3 255 559.891 159.542 180.316 0 0 0
356 3 256 751.603 712.478 291.836 0 0 0
357 3 257 504.9 350.838 467.891 0 0 0
358 3 258 5.45213 144.11 480.164 0 0 0
359 3 259 461.558 427.62 672.547 0 0 0
360 3 260 691.12 409.4 100.4 0 0 0
361 3 261 575.924 131.983 283.903 0 0 0
362 3 262 640.33 60.826 227.222 0 0 0
363 3 263 393.129 715.304 538.287 0 0 0
364 3 264 34.7189 130.789 274.332 0 0 0
365 3 265 107.546 494.134 307.418 0 0 0
366 3 266 263.708 706.264 431.578 0 0 0
367 3 267 788.674 367.315 487.178 -1 0 0
368 3 268 315.805 683.672 122.161 0 0 0
369 3 269 349.299 328.302 227.829 0 0 0
370 3 270 11.3705 505.885 266.246 0 0 0
371 3 271 458.275 175.323 735.572 0 0 0
372 3 272 230.143 236.337 311.603 0 0 0
373 3 273 649.041 719.491 140.724 0 0 0
374 3 274 0.656228 495.302 770.183 0 0 0
375 3 275 284.746 514.441 739.782 0 0 0
376 3 276 67.2574 662.733 670.402 0 0 0
377 3 277 58.4608 363.149 429.813 0 0 0
378 3 278 496.48 112.685 65.0681 0 0 0
379 3 279 544.454 483.48 9.183 0 0 0
380 3 280 102.879 471.8 25.448 0 0 0
381 3 281 492.322 24.8458 348.703 0 0 0
382 3 282 411.322 219.949 740.014 0 0 0
383 3 283 268.796 483.636 426.542 0 0 0
384 3 284 584.388 215.201 697.422 0 0 0
385 3 285 254.248 599.273 763.972 0 0 0
386 3 286 84.2807 389.973 236.084 0 0 0
387 3 287 10.599 211.838 624.173 0 0 0
388 3 288 142.515 731.226 104.426 0 0 0
389 3 289 614.822 202.607 619.327 0 0 0
390 3 290 104.819 374.455 688.578 0 0 0
391 3 291 305.585 223.629 200.3 0 0 0
392 3 292 216.492 765.258 596.428 0 0 0
393 3 293 144.254 390.978 388.39 0 0 0
394 3 294 252.258 342.33 669.646 0 0 0
395 3 295 50.61 734.045 784.433 0 0 0
396 3 296 520.983 391.594 696.144 0 0 0
397 3 297 63.5156 169.26 707.368 0 0 0
398 3 298 785.409 123.107 42.6199 0 0 0
399 3 299 734.424 29.8801 614.947 0 0 0
400 3 300 525.062 680.84 243.362 0 0 0
401 3 301 289.292 338.326 195.511 0 0 0
402 3 302 448.157 749.273 382.631 0 0 0
403 3 303 392.701 586.692 11.6388 0 0 0
404 3 304 386.958 79.7378 529.266 0 0 0
405 3 305 210.448 388.109 712.917 0 0 0
406 3 306 358.207 596.088 189.185 0 0 0
407 3 307 114.672 681.736 111.293 0 0 0
408 3 308 792.908 589.673 202.796 0 0 0
409 3 309 443.114 633.082 625.362 0 0 0
410 3 310 244.573 328.363 558.693 0 0 0
411 3 311 582.737 454.801 453.12 0 0 0
412 3 312 494.416 787.074 536.193 0 0 0
413 3 313 622.838 509.306 350.944 0 0 0
414 3 314 401.109 153.528 42.2934 0 0 0
415 3 315 326.108 499.859 733.259 0 0 0
416 3 316 688.38 651.096 137.236 0 0 0
417 3 317 741.015 301.123 616.73 0 0 0
418 3 318 464.699 346.925 528.816 0 0 0
419 3 319 277.656 154.932 538.914 0 0 0
420 3 320 484.488 64.8707 22.1959 0 0 0
421 3 321 648.872 446.724 778.428 0 0 0
422 3 322 281.386 295.424 515.341 0 0 0
423 3 323 434.599 457.856 556.18 0 0 0
424 3 324 746.133 694.035 40.6213 0 0 0
425 3 325 187.514 692.873 227.635 0 0 0
426 3 326 695.982 205.141 202.821 0 0 0
427 3 327 258.204 68.0444 236.361 0 0 0
428 3 328 674.869 111.542 517.75 0 0 0
429 3 329 455.187 730.229 0.265616 0 0 0
430 3 330 236.188 222.056 473.768 0 0 0
431 3 331 303.247 88.9172 128.751 0 0 0
432 3 332 646.142 441.636 413.913 0 0 0
433 3 333 756.15 199.71 421.812 0 0 0
434 3 334 146.402 441.743 22.2423 0 0 0
435 3 335 515.049 611.518 491.616 0 0 0
436 3 336 735.542 123.113 794.135 0 0 0
437 3 337 307.743 145.554 354.541 0 0 0
438 3 338 419.641 739.372 232.174 0 0 0
439 3 339 498.578 169.138 619.038 0 0 0
440 3 340 343.431 706.472 612.098 0 0 0
441 3 341 237.11 15.2123 335.949 0 0 0
442 3 342 513.14 780.107 413.698 0 0 0
443 3 343 272.592 679.181 273.588 0 0 0
444 3 344 426.905 654.915 72.5801 0 0 0
445 3 345 667.18 271.185 645.553 0 0 0
446 3 346 384.849 10.8544 594.709 0 0 0
447 3 347 697.168 529.092 307.664 0 0 0
448 3 348 738.775 320.619 709.965 0 0 0
449 3 349 788.283 490.742 796.175 0 0 0
450 3 350 641.887 82.0811 29.8845 0 0 0
451 3 351 150.394 231.485 125.193 0 0 0
452 3 352 340.368 680.688 91.1333 0 0 0
453 3 353 386.994 495.673 327.467 0 0 0
454 3 354 404.79 434.258 48.3632 0 0 0
455 3 355 593.561 787.411 784.263 0 0 0
456 3 356 700.471 382.908 424.158 0 0 0
457 3 357 173.221 612.16 649.118 0 0 0
458 3 358 711.465 107.48 455.607 0 0 0
459 3 359 726.114 622.647 473.822 0 0 0
460 3 360 295.177 711.525 742.353 0 0 0
461 3 361 416.759 315.014 147.804 0 0 0
462 3 362 323.423 386.117 635.315 0 0 0
463 3 363 697.386 286.939 696.134 0 0 0
464 3 364 43.668 174.361 285.649 0 0 0
465 3 365 281.09 377.627 482.144 0 0 0
466 3 366 8.17854 419.866 527.947 0 0 0
467 3 367 465.9 763.597 139.458 0 0 0
468 3 368 794.99 718.174 505.686 0 0 0
469 3 369 558.837 275.076 338.886 0 0 0
470 3 370 198.235 644.441 24.8404 0 0 0
471 3 371 775.735 218.815 69.814 0 0 0
472 3 372 321.55 202.538 752.717 0 0 0
473 3 373 519.538 795.215 10.8622 0 0 0
474 3 374 109.281 109.555 528.971 0 0 0
475 3 375 50.0263 742.072 414.548 0 0 0
476 3 376 75.1635 777.841 362.846 0 0 0
477 3 377 445.835 224.31 589.146 0 0 0
478 3 378 542.886 217.93 288.608 0 0 0
479 3 379 618.671 49.814 787.813 0 0 0
480 3 380 537.728 417.363 53.7791 0 0 0
481 3 381 251.239 510.577 110.033 0 0 0
482 3 382 531.004 416.976 292.639 0 0 0
483 3 383 283.395 219.487 152.092 0 0 0
484 3 384 660.44 53.8216 205.952 0 0 0
485 3 385 134.915 450.006 273.825 0 0 0
486 3 386 93.2413 694.743 363.156 0 0 0
487 3 387 509.436 698.558 417.639 0 0 0
488 3 388 123.75 579.833 190.894 0 0 0
489 3 389 292.977 394.904 705.327 0 0 0
490 3 390 192.547 474.131 607.958 0 0 0
491 3 391 174.942 88.8194 577.841 0 0 0
492 3 392 268.803 583.298 333.357 0 0 0
493 3 393 746.037 786.343 295.457 0 0 0
494 3 394 536.748 552.044 4.89465 0 0 0
495 3 395 783.846 123.086 288.446 0 0 0
496 3 396 218.738 142.312 100.501 0 0 0
497 3 397 324.69 235.917 711.393 0 0 0
498 3 398 271.497 216.398 245.917 0 0 0
499 3 399 171.538 216.021 536.465 0 0 0
500 3 400 327.658 134.867 378.221 0 0 0
501 3 401 24.2472 295.192 672.568 0 0 0
502 3 402 618.991 504.726 583.411 0 0 0
503 3 403 338.578 569.897 376.824 0 0 0
504 3 404 183.809 397.478 109.441 0 0 0
505 3 405 59.127 445.679 90.3061 0 0 0
506 3 406 448.969 155.558 359.646 0 0 0
507 3 407 757.076 94.4196 775.365 0 0 0
508 3 408 404.001 486.932 699.876 0 0 0
509 3 409 183.655 3.99756 3.92713 0 0 0
510 3 410 460.519 770.992 654.547 0 0 0
511 3 411 641.395 382.532 348.641 0 0 0
512 3 412 163.117 63.2384 345.672 0 0 0
513 3 413 649.481 78.7832 248.427 0 0 0
514 3 414 539.698 27.6351 761.001 0 0 0
515 3 415 711.129 627.874 194.249 0 0 0
516 3 416 663.542 266.359 588.585 0 0 0
517 3 417 303.822 507.954 653.098 0 0 0
518 3 418 533.14 731.392 788.894 0 0 0
519 3 419 331.033 391.266 737.442 0 0 0
520 3 420 206.004 372.057 639.724 0 0 0
521 3 421 774.871 688.336 137.369 0 0 0
522 3 422 82.3838 158.33 125.351 0 0 0
523 3 423 180.341 764.005 235.317 0 0 0
524 3 424 649.592 798.557 105.958 0 -1 0
525 3 425 72.0496 139.884 421.754 0 0 0
526 3 426 54.6853 3.68059 292.581 0 0 0
527 3 427 355.353 715.334 407.991 0 0 0
528 3 428 677.225 441.579 291.356 0 0 0
529 3 429 164.315 535.708 278.624 0 0 0
530 3 430 215.484 530.485 571.449 0 0 0
531 3 431 666.078 142.613 275.723 0 0 0
532 3 432 84.2808 798.427 126.882 0 -1 0
533 3 433 191.119 391.92 218.978 0 0 0
534 3 434 152.529 718.499 787.962 0 0 0
535 3 435 144.904 696.611 766.464 0 0 0
536 3 436 751.631 721.282 770.102 0 0 0
537 3 437 513.731 623.503 18.475 0 0 0
538 3 438 6.56206 1.27982 7.02229 0 0 0
539 3 439 512.663 456.666 71.3157 0 0 0
540 3 440 592.857 79.8832 378.076 0 0 0
541 3 441 673.029 537.555 573.108 0 0 0
542 3 442 547.003 140.237 586.395 0 0 0
543 3 443 679.871 256.557 670.198 0 0 0
544 3 444 170.193 95.6934 242.348 0 0 0
545 3 445 287.787 706.957 584.079 0 0 0
546 3 446 454.399 591.362 430.953 0 0 0
547 3 447 47.5384 117.104 199.777 0 0 0
548 3 448 780.213 663.498 738.994 0 0 0
549 3 449 304.202 583.863 317.582 0 0 0
550 3 450 128.923 22.5046 799.264 0 0 0
551 3 451 110.145 793.345 540.571 0 0 0
552 3 452 129.63 518.977 482.835 0 0 0
553 3 453 235.874 197.243 551.964 0 0 0
554 3 454 118.226 779.213 762.517 0 0 0
555 3 455 796.354 205.765 94.6908 0 0 0
556 3 456 690.454 608.517 105.95 0 0 0
557 3 457 272.696 228.332 94.6439 0 0 0
558 3 458 736.198 612.551 153.419 0 0 0
559 3 459 513.77 320.123 337.394 0 0 0
560 3 460 344.066 762.342 265.215 0 0 0
561 3 461 21.2711 1.85003 88.2648 0 1 0
562 3 462 306.789 42.351 367.623 0 0 0
563 3 463 385.926 284.751 540.259 0 0 0
564 3 464 312.856 5.59107 134.126 0 0 0
565 3 465 483.237 401.676 332.468 0 0 0
566 3 466 554.205 641.113 712.781 0 0 0
567 3 467 645.494 393.57 273.556 0 0 0
568 3 468 310.173 318.797 493.841 0 0 0
569 3 469 95.4681 17.4388 628.039 0 0 0
570 3 470 274.406 525.988 86.7294 0 0 0
571 3 471 220.229 733.535 227.273 0 0 0
572 3 472 602.772 242.825 175.995 0 0 0
573 3 473 209.754 679.84 287.64 0 0 0
574 3 474 415.965 2.18056 760.532 0 0 0
575 3 475 259.84 287.275 704.769 0 0 0
576 3 476 413.69 437.754 317.069 0 0 0
577 3 477 194.445 789.76 637.902 0 0 0
578 3 478 683.644 790.528 259.467 0 0 0
579 3 479 331.642 530.786 225.071 0 0 0
580 3 480 25.6416 5.11319 680.948 0 0 0
581 3 481 676.541 414.234 80.4247 0 0 0
582 3 482 679.192 493.96 511.655 0 0 0
583 3 483 492.3 727.697 667.418 0 0 0
584 3 484 2.4753 751.628 5.59789 1 0 0
585 3 485 439.454 512.081 641.196 0 0 0
586 3 486 684.97 112.478 563.787 0 0 0
587 3 487 207.934 714.509 249.415 0 0 0
588 3 488 109.966 793.377 697.803 0 0 0
589 3 489 484.803 328.329 469.244 0 0 0
590 3 490 103.777 558.384 665.754 0 0 0
591 3 491 105.366 383.931 350.75 0 0 0
592 3 492 169.762 427.356 747.317 0 0 0
593 3 493 0.253247 481.106 722.802 1 0 0
594 3 494 223.622 722.185 212.037 0 0 0
595 3 495 270.689 445.238 5.73322 0 0 0
596 3 496 446.934 451.039 589.767 0 0 0
597 3 497 95.5116 132.736 561.978 0 0 0
598 3 498 135.988 459.188 465.73 0 0 0
599 3 499 255.066 618.299 488.413 0 0 0
600 3 500 304.481 322.386 146.499 0 0 0
601 3 501 193.187 198.204 223.273 0 0 0
602 3 502 162.211 36.803 564.188 0 0 0
603 3 503 509.002 255.101 190.698 0 0 0
604 3 504 352.596 151.087 704.143 0 0 0
605 3 505 177.421 149.951 35.8757 0 0 0
606 3 506 785.073 757.52 353.437 0 0 0
607 3 507 304.303 774.7 434.492 0 0 0
608 3 508 633.194 333.627 382.854 0 0 0
609 3 509 364.342 117.648 177.897 0 0 0
610 3 510 648.711 704.62 226.957 0 0 0
611 3 511 196.192 525.381 498.082 0 0 0
612 3 512 250.163 784.388 45.7895 0 0 0
613 3 513 208.875 772.704 710.154 0 0 0
614 3 514 73.24 536.188 286.296 0 0 0
615 3 515 53.3693 206.843 482.569 0 0 0
616 3 516 160.051 94.6322 662.049 0 0 0
617 3 517 659.178 80.9314 511.445 0 0 0
618 3 518 551.007 320.063 721.469 0 0 0
619 3 519 427.019 398.889 772.877 0 0 0
620 3 520 484.756 786.409 490.992 0 0 0
621 3 521 479.114 741.324 797.249 0 0 0
622 3 522 271.459 691.93 798.163 0 0 -1
623 3 523 738.361 733.991 457.889 0 0 0
624 3 524 763.132 302.293 171.918 0 0 0
625 3 525 469.442 548.442 571.313 0 0 0
626 3 526 336.696 140.819 585.655 0 0 0
627 3 527 133.973 158.561 656.288 0 0 0
628 3 528 114.096 766.136 259.883 0 0 0
629 3 529 305.124 575.026 726.919 0 0 0
630 3 530 320.221 547.713 93.9036 0 0 0
631 3 531 399.332 278.623 600.086 0 0 0
632 3 532 666.491 222.024 63.7408 0 0 0
633 3 533 676.246 35.9806 277.212 0 0 0
634 3 534 322.637 343.681 277.231 0 0 0
635 3 535 251.184 358.625 252.653 0 0 0
636 3 536 256.485 188.779 255.532 0 0 0
637 3 537 687.182 571.535 92.6659 0 0 0
638 3 538 427.864 561.921 42.6358 0 0 0
639 3 539 84.8575 61.1229 170.68 0 0 0
640 3 540 96.9655 596.145 617.503 0 0 0
641 3 541 20.6795 210.159 223.236 0 0 0
642 3 542 414.388 332.899 378.941 0 0 0
643 3 543 751.927 216.253 115.926 0 0 0
644 3 544 650.219 785.636 282.653 0 0 0
645 3 545 459.355 547.76 67.3886 0 0 0
646 3 546 362.508 503.834 108.885 0 0 0
647 3 547 659.863 735.1 490.095 0 0 0
648 3 548 562.83 127.732 272.151 0 0 0
649 3 549 126.992 398.218 201.422 0 0 0
650 3 550 691.945 746.119 221.848 0 0 0
651 3 551 275.192 724.356 246.155 0 0 0
652 3 552 124.73 360.953 600.338 0 0 0
653 3 553 763.055 6.86078 493.208 0 0 0
654 3 554 711.053 34.2971 765.698 0 0 0
655 3 555 568.572 49.0522 85.8623 0 0 0
656 3 556 59.9227 45.6967 792.559 0 0 0
657 3 557 724.709 195.819 40.6964 0 0 0
658 3 558 376.025 410.236 781.789 0 0 0
659 3 559 57.9214 763.24 81.1948 0 0 0
660 3 560 195.538 555.119 87.3652 0 0 0
661 3 561 168.844 149.578 692.353 0 0 0
662 3 562 10.5439 650.957 460.881 0 0 0
663 3 563 147.009 768.87 28.3859 0 0 0
664 3 564 795.687 385.822 188.543 0 0 0
665 3 565 623.174 308.295 186.501 0 0 0
666 3 566 717.617 499.544 459.942 0 0 0
667 3 567 81.0386 755.269 229.035 0 0 0
668 3 568 96.8568 246.993 655.597 0 0 0
669 3 569 169.79 10.4636 293.521 0 0 0
670 3 570 317.362 133.879 301.674 0 0 0
671 3 571 553.594 355.461 126.734 0 0 0
672 3 572 129.938 746.946 405.715 0 0 0
673 3 573 256.676 264.402 606.157 0 0 0
674 3 574 267.569 422.689 95.839 0 0 0
675 3 575 492.038 595.373 787.748 0 0 0
676 3 576 711.857 692.131 99.9995 0 0 0
677 3 577 677.454 321.77 596.112 0 0 0
678 3 578 397.939 151.215 618.043 0 0 0
679 3 579 760.311 309.039 430.33 0 0 0
680 3 580 773.049 738.596 403.182 0 0 0
681 3 581 741.552 640.837 335.409 0 0 0
682 3 582 18.9368 390.171 280.949 0 0 0
683 3 583 406.694 712.766 119.601 0 0 0
684 3 584 498.755 600.036 123.92 0 0 0
685 3 585 700.036 19.225 729.553 0 0 0
686 3 586 173.713 653.888 276.891 0 0 0
687 3 587 64.9059 87.7717 337.778 0 0 0
688 3 588 112.809 480.294 147.988 0 0 0
689 3 589 306.625 70.1734 101.588 0 0 0
690 3 590 155.594 664.818 644.402 0 0 0
691 3 591 280.444 18.2993 788.487 0 0 0
692 3 592 348.164 745.577 608.637 0 0 0
693 3 593 452.733 128.481 297.031 0 0 0
694 3 594 526.91 414.075 505.924 0 0 0
695 3 595 126.702 274.478 726.5 0 0 0
696 3 596 665.326 542.27 688.525 0 0 0
697 3 597 250.271 282.862 533.374 0 0 0
698 3 598 782.153 76.2314 636.462 0 0 0
699 3 599 319.256 427.384 309.058 0 0 0
700 3 600 345.708 554.951 170.628 0 0 0
701 3 601 583.368 533.932 293.183 0 0 0
702 3 602 723.857 608.105 76.2667 0 0 0
703 3 603 373.78 3.90244 229.872 0 0 0
704 3 604 344.236 454.807 134.167 0 0 0
705 3 605 395.255 309.874 725.113 0 0 0
706 3 606 257.994 378.444 202.527 0 0 0
707 3 607 568.512 9.70292 343.891 0 0 0
708 3 608 429.613 407.879 590.447 0 0 0
709 3 609 596.925 527.495 549.276 0 0 0
710 3 610 662.872 81.2748 391.341 0 0 0
711 3 611 580.998 578.912 417.515 0 0 0
712 3 612 538.357 82.2278 786.842 0 0 0
713 3 613 100.993 296.962 312.722 0 0 0
714 3 614 611.214 580.643 242.031 0 0 0
715 3 615 384.752 247.462 534.961 0 0 0
716 3 616 641.365 420.155 227.633 0 0 0
717 3 617 683.815 110.603 585.474 0 0 0
718 3 618 29.0167 424.756 143.76 0 0 0
719 3 619 553.804 94.5332 136.311 0 0 0
720 3 620 218.218 34.0438 789.077 0 0 0
721 3 621 783.122 643.483 159.165 0 0 0
722 3 622 625.057 563.849 745.422 0 0 0
723 3 623 486.731 415.529 622.945 0 0 0
724 3 624 560.714 19.4025 569.001 0 0 0
725 3 625 780.583 706.056 601.006 0 0 0
726 3 626 781.909 521.256 771.553 0 0 0
727 3 627 445.351 470.462 627.18 0 0 0
728 3 628 518.285 58.8287 351.437 0 0 0
729 3 629 598.142 192.39 497.928 0 0 0
730 3 630 276.292 210.2 347.567 0 0 0
731 3 631 261.442 224.338 516.578 0 0 0
732 3 632 466.528 173.041 225.215 0 0 0
733 3 633 379.404 596.886 145.409 0 0 0
734 3 634 713.447 788.839 634.015 0 0 0
735 3 635 186.596 299.536 585.747 0 0 0
736 3 636 310.633 576.489 293.147 0 0 0
737 3 637 129.124 713.355 522.343 0 0 0
738 3 638 292.349 670.595 498.336 0 0 0
739 3 639 347.287 732.336 229.337 0 0 0
740 3 640 51.8802 532.515 206.517 0 0 0
741 3 641 782.388 393.31 623.934 0 0 0
742 3 642 461.416 295.219 261.829 0 0 0
743 3 643 618.641 4.20874 384.399 0 0 0
744 3 644 286.281 273.568 70.8007 0 0 0
745 3 645 538.341 675.174 704.967 0 0 0
746 3 646 757.214 792.457 467.263 0 0 0
747 3 647 582.031 672.965 65.954 0 0 0
748 3 648 89.4403 181.556 649.96 0 0 0
749 3 649 708.919 740.83 621.261 0 0 0
750 3 650 466.495 769.968 787.216 0 0 0
751 3 651 142.523 42.0521 376.736 0 0 0
752 3 652 242.649 528.118 598.619 0 0 0
753 3 653 369.828 411.881 573.326 0 0 0
754 3 654 497.296 516.782 396.017 0 0 0